# vtk DataFile Version 2.0 
Lid_driven streamfuntion-vorticity 
ASCII 
DATASET RECTILINEAR_GRID 
DIMENSIONS 65 65 1
X_COORDINATES 65 float 
0 
0.015625 0.03125 0.046875 0.0625 0.078125 0.09375 
0.109375 0.125 0.140625 0.15625 0.171875 0.1875 
0.203125 0.21875 0.234375 0.25 0.265625 0.28125 
0.296875 0.3125 0.328125 0.34375 0.359375 0.375 
0.390625 0.40625 0.421875 0.4375 0.453125 0.46875 
0.484375 0.5 0.515625 0.53125 0.546875 0.5625 
0.578125 0.59375 0.609375 0.625 0.640625 0.65625 
0.671875 0.6875 0.703125 0.71875 0.734375 0.75 
0.765625 0.78125 0.796875 0.8125 0.828125 0.84375 
0.859375 0.875 0.890625 0.90625 0.921875 0.9375 
0.953125 0.96875 0.984375 1 
Y_COORDINATES 65 float 
0 
0.015625 0.03125 0.046875 0.0625 0.078125 0.09375 
0.109375 0.125 0.140625 0.15625 0.171875 0.1875 
0.203125 0.21875 0.234375 0.25 0.265625 0.28125 
0.296875 0.3125 0.328125 0.34375 0.359375 0.375 
0.390625 0.40625 0.421875 0.4375 0.453125 0.46875 
0.484375 0.5 0.515625 0.53125 0.546875 0.5625 
0.578125 0.59375 0.609375 0.625 0.640625 0.65625 
0.671875 0.6875 0.703125 0.71875 0.734375 0.75 
0.765625 0.78125 0.796875 0.8125 0.828125 0.84375 
0.859375 0.875 0.890625 0.90625 0.921875 0.9375 
0.953125 0.96875 0.984375 1 
Z_COORDINATES 1 float 
0 

POINT_DATA 4225
SCALARS fsfsfs float
LOOKUP_TABLE default 
0.5 0.362556 0.233099 0.118247 0.0222859 -0.0532276 
-0.109215 -0.148363 -0.174236 -0.190474 -0.200253 -0.206027 
-0.209511 -0.211799 -0.213534 -0.21507 -0.216586 -0.218168 
-0.219857 -0.221673 -0.223625 -0.22572 -0.227964 -0.23036 
-0.232914 -0.23563 -0.238513 -0.241568 -0.244798 -0.24821 
-0.251808 -0.255596 -0.259579 -0.263762 -0.268151 -0.272752 
-0.277571 -0.282611 -0.287878 -0.293374 -0.299103 -0.305067 
-0.31127 -0.317712 -0.324394 -0.331316 -0.338477 -0.345875 
-0.353507 -0.361368 -0.369453 -0.377755 -0.386266 -0.394977 
-0.403876 -0.412951 -0.42219 -0.431576 -0.441095 -0.450729 
-0.460459 -0.470267 -0.480134 -0.490054 -0.5 0.5 0.360957 0.230183 0.11449 0.0182415 -0.057059 
-0.112479 -0.150885 -0.176002 -0.19158 -0.200843 -0.206246 
-0.209477 -0.211597 -0.213219 -0.21467 -0.216114 -0.21763 
-0.219254 -0.221002 -0.222884 -0.224908 -0.227076 -0.229396 
-0.231871 -0.234507 -0.237309 -0.240281 -0.243429 -0.246759 
-0.250275 -0.253983 -0.257888 -0.261994 -0.266311 -0.270843 
-0.275597 -0.280577 -0.28579 -0.291238 -0.296926 -0.302858 
-0.309037 -0.315464 -0.322141 -0.329068 -0.336246 -0.343672 
-0.351344 -0.359258 -0.367409 -0.375789 -0.384391 -0.393205 
-0.40222 -0.411423 -0.4208 -0.430336 -0.440013 -0.449814 
-0.459719 -0.469707 -0.479757 -0.489866 -0.5 0.5 0.358297 0.225337 0.108263 0.0115726 -0.0633238 
-0.11774 -0.154849 -0.178643 -0.193054 -0.201383 -0.206088 
-0.208813 -0.210557 -0.211881 -0.213074 -0.214274 -0.215546 
-0.216919 -0.218407 -0.220019 -0.221761 -0.22364 -0.225661 
-0.227831 -0.230156 -0.232643 -0.235297 -0.238128 -0.24114 
-0.244342 -0.247741 -0.251344 -0.25516 -0.259197 -0.263464 
-0.267969 -0.272721 -0.277725 -0.28299 -0.288523 -0.294329 
-0.300415 -0.306784 -0.313442 -0.320391 -0.327632 -0.335167 
-0.342994 -0.351111 -0.359513 -0.368194 -0.377146 -0.386359 
-0.39582 -0.405515 -0.415428 -0.42554 -0.43583 -0.446277 
-0.456855 -0.46754 -0.478304 -0.489142 -0.5 0.5 0.356563 0.222189 0.104259 0.00735502 -0.0671733 
-0.120809 -0.15693 -0.179711 -0.193198 -0.200747 -0.204809 
-0.206995 -0.208269 -0.209154 -0.209913 -0.210671 -0.211483 
-0.212376 -0.213363 -0.214454 -0.215657 -0.216981 -0.218433 
-0.220022 -0.221756 -0.223647 -0.225702 -0.227933 -0.23035 
-0.232964 -0.235786 -0.238827 -0.2421 -0.245618 -0.249392 
-0.253436 -0.257762 -0.262383 -0.267309 -0.272554 -0.278129 
-0.284044 -0.290309 -0.296934 -0.303925 -0.311288 -0.319029 
-0.327149 -0.335649 -0.344526 -0.353775 -0.363388 -0.373354 
-0.383659 -0.394286 -0.405213 -0.416418 -0.427872 -0.439545 
-0.451405 -0.463416 -0.47554 -0.487765 -0.5 0.5 0.355505 0.22028 0.101873 0.00492372 -0.0692571 
-0.122262 -0.157601 -0.179562 -0.19227 -0.199108 -0.202525 
-0.204112 -0.204805 -0.205106 -0.205265 -0.205396 -0.205554 
-0.205763 -0.206038 -0.206392 -0.206835 -0.20738 -0.208036 
-0.208818 -0.209737 -0.210806 -0.21204 -0.213453 -0.21506 
-0.216876 -0.218918 -0.221202 -0.223746 -0.226566 -0.229681 
-0.233108 -0.236866 -0.240974 -0.245449 -0.250312 -0.255578 
-0.261267 -0.267395 -0.273978 -0.281029 -0.28856 -0.296583 
-0.305104 -0.314128 -0.323656 -0.333685 -0.344208 -0.355214 
-0.366685 -0.378603 -0.390939 -0.403662 -0.416737 -0.430122 
-0.443772 -0.457638 -0.471666 -0.485835 -0.5 0.5 0.354947 0.219291 0.100688 0.00382235 -0.0700189 
-0.12249 -0.15718 -0.178445 -0.190452 -0.196602 -0.199344 
-0.200255 -0.200258 -0.199843 -0.199254 -0.198602 -0.197941 
-0.197299 -0.196693 -0.196139 -0.195654 -0.195251 -0.194948 
-0.19476 -0.194706 -0.194802 -0.195067 -0.19552 -0.196181 
-0.197071 -0.198209 -0.199619 -0.201323 -0.203342 -0.205699 
-0.208419 -0.211526 -0.215045 -0.219002 -0.223423 -0.228334 
-0.23376 -0.239726 -0.246256 -0.253372 -0.261095 -0.269442 
-0.278428 -0.288063 -0.298354 -0.309303 -0.320904 -0.333147 
-0.346014 -0.359481 -0.373515 -0.388077 -0.403119 -0.418588 
-0.434423 -0.450556 -0.466916 -0.483465 -0.5 0.5 0.354777 0.219011 0.100433 0.00375214 -0.0697491 
-0.121753 -0.155883 -0.176528 -0.187877 -0.19334 -0.195365 
-0.195527 -0.194744 -0.193502 -0.192045 -0.190486 -0.188882 
-0.187264 -0.185657 -0.184081 -0.182557 -0.181104 -0.179745 
-0.1785 -0.177391 -0.17644 -0.175671 -0.175106 -0.17477 
-0.174687 -0.174882 -0.175381 -0.176212 -0.177399 -0.17897 
-0.180955 -0.183383 -0.186287 -0.189699 -0.193652 -0.19818 
-0.203318 -0.209098 -0.215555 -0.222719 -0.230623 -0.239293 
-0.248753 -0.259023 -0.270117 -0.282044 -0.294802 -0.308385 
-0.322775 -0.337945 -0.353858 -0.370466 -0.387709 -0.405519 
-0.423817 -0.442516 -0.461518 -0.480769 -0.5 0.5 0.354915 0.219299 0.100923 0.00451179 -0.0686441 
-0.120226 -0.153858 -0.173937 -0.184652 -0.18942 -0.190691 
-0.190042 -0.188395 -0.186242 -0.183829 -0.181277 -0.178649 
-0.175982 -0.173307 -0.170651 -0.168041 -0.165501 -0.16306 
-0.160742 -0.158574 -0.156582 -0.154792 -0.153231 -0.151924 
-0.150901 -0.150187 -0.149813 -0.149806 -0.150195 -0.151011 
-0.152287 -0.154056 -0.156357 -0.159228 -0.162708 -0.166839 
-0.171664 -0.177227 -0.183572 -0.190741 -0.198778 -0.207721 
-0.217608 -0.22847 -0.240332 -0.253212 -0.26712 -0.282052 
-0.297995 -0.314922 -0.332792 -0.351548 -0.371122 -0.391426 
-0.412363 -0.43382 -0.455675 -0.477848 -0.5 0.5 0.355309 0.220056 0.102031 0.00596142 -0.0668414 
-0.118034 -0.151218 -0.170769 -0.180871 -0.184937 -0.185425 
-0.183921 -0.181358 -0.178238 -0.174817 -0.171227 -0.167537 
-0.163795 -0.160039 -0.156302 -0.152618 -0.149018 -0.145534 
-0.142195 -0.139032 -0.136072 -0.133344 -0.130876 -0.128695 
-0.126827 -0.125303 -0.124149 -0.123396 -0.123072 -0.123208 
-0.123839 -0.125002 -0.126738 -0.12909 -0.132103 -0.135827 
-0.140312 -0.145614 -0.151786 -0.158886 -0.166969 -0.17609 
-0.186301 -0.197649 -0.210175 -0.223912 -0.238879 -0.255086 
-0.272526 -0.291175 -0.310991 -0.331911 -0.353855 -0.37672 
-0.400385 -0.424712 -0.449547 -0.47478 -0.5 0.5 0.35592 0.221214 0.103665 0.00800059 -0.064441 
-0.115272 -0.148049 -0.167109 -0.176617 -0.179984 -0.179675 
-0.177293 -0.173786 -0.169674 -0.165229 -0.160592 -0.155847 
-0.151049 -0.146246 -0.141478 -0.136786 -0.132207 -0.127775 
-0.123524 -0.119485 -0.115687 -0.112158 -0.108924 -0.106011 
-0.103445 -0.10125 -0.0994527 -0.0980803 -0.097159 -0.0967188 
-0.096794 -0.0974224 -0.0986457 -0.10051 -0.103066 -0.106369 
-0.110479 -0.11546 -0.121379 -0.128306 -0.136315 -0.145478 
-0.155864 -0.167542 -0.180571 -0.195003 -0.210877 -0.228216 
-0.247026 -0.26729 -0.288969 -0.311997 -0.336284 -0.361708 
-0.388127 -0.415372 -0.443252 -0.471624 -0.5 0.5 0.35672 0.22272 0.105758 0.0105548 -0.0615184 
-0.112014 -0.144421 -0.163029 -0.17197 -0.174651 -0.173548 
-0.170286 -0.165835 -0.160736 -0.155281 -0.149627 -0.143869 
-0.138075 -0.1323 -0.126595 -0.121004 -0.115568 -0.110326 
-0.105313 -0.100558 -0.0960886 -0.0919308 -0.0881067 -0.0846375 
-0.0815432 -0.0788441 -0.0765609 -0.0747153 -0.0733296 -0.0724301 
-0.0720483 -0.0722202 -0.0729874 -0.0743976 -0.0765045 -0.079369 
-0.0830585 -0.0876474 -0.093216 -0.0998503 -0.10764 -0.116679 
-0.127058 -0.13887 -0.152198 -0.167119 -0.183695 -0.201971 
-0.22197 -0.243688 -0.267093 -0.29212 -0.318669 -0.346604 
-0.375755 -0.405921 -0.436871 -0.46842 -0.5 0.5 0.357688 0.224536 0.10826 0.0135669 -0.0581325 
-0.108317 -0.140397 -0.158593 -0.167004 -0.169026 -0.167151 
-0.163027 -0.157655 -0.151603 -0.145181 -0.138568 -0.131872 
-0.125173 -0.118536 -0.112018 -0.105668 -0.0995306 -0.093645 
-0.0880442 -0.0827561 -0.0778043 -0.0732081 -0.0689837 -0.0651449 
-0.0617044 -0.0586742 -0.0560675 -0.0538983 -0.0521829 -0.0509418 
-0.0502017 -0.049995 -0.0503613 -0.0513481 -0.0530113 -0.0554158 
-0.0586361 -0.0627563 -0.0678699 -0.0740788 -0.0814923 -0.0902256 
-0.100397 -0.112124 -0.125522 -0.140695 -0.157736 -0.176717 
-0.197686 -0.220659 -0.245614 -0.272492 -0.301186 -0.331546 
-0.363376 -0.396437 -0.430454 -0.465194 -0.5 0.5 0.358807 0.226631 0.11113 0.0169918 -0.0543309 
-0.104233 -0.136028 -0.153862 -0.161788 -0.163193 -0.160584 
-0.15564 -0.149392 -0.14244 -0.135121 -0.127631 -0.120096 
-0.112608 -0.10524 -0.0980547 -0.091105 -0.0844365 -0.0780867 
-0.0720852 -0.0664551 -0.0612131 -0.0563705 -0.0519347 -0.04791 
-0.0442992 -0.0411044 -0.0383289 -0.0359779 -0.0340594 -0.0325869 
-0.0315804 -0.0310674 -0.0310841 -0.031676 -0.0328996 -0.034823 
-0.0375265 -0.0411032 -0.0456589 -0.0513119 -0.0581915 -0.0664367 
-0.0761933 -0.0876104 -0.100836 -0.11601 -0.133262 -0.152696 
-0.174393 -0.198394 -0.224698 -0.253252 -0.28395 -0.316626 
-0.351059 -0.386971 -0.424034 -0.461961 -0.5 0.5 0.360064 0.228981 0.114337 0.0207927 -0.050153 
-0.0998014 -0.131361 -0.148888 -0.156387 -0.157231 -0.153943 
-0.148235 -0.141176 -0.133398 -0.125268 -0.117003 -0.108746 
-0.100599 -0.092644 -0.0849473 -0.0775643 -0.070539 -0.0639052 
-0.057687 -0.0518997 -0.0465511 -0.0416425 -0.0371704 -0.0331279 
-0.0295061 -0.0262961 -0.02349 -0.0210828 -0.0190734 -0.017467 
-0.0162762 -0.0155221 -0.0152359 -0.0154603 -0.0162508 -0.017677 
-0.0198237 -0.0227915 -0.0266978 -0.0316763 -0.0378762 -0.0454611 
-0.0546059 -0.0654932 -0.0783082 -0.0932318 -0.110433 -0.130061 
-0.152231 -0.17702 -0.204453 -0.234492 -0.267034 -0.301902 
-0.338848 -0.377551 -0.417629 -0.458729 -0.5 0.5 0.361447 0.231566 0.117853 0.0249393 -0.045632 
-0.09506 -0.126436 -0.143722 -0.15086 -0.151211 -0.147314 
-0.140915 -0.133123 -0.124609 -0.115767 -0.10684 -0.0979855 
-0.0893168 -0.0809221 -0.0728709 -0.0652179 -0.0580036 -0.0512561 
-0.0449914 -0.0392153 -0.0339246 -0.0291091 -0.0247529 -0.0208368 
-0.0173397 -0.0142404 -0.0115196 -0.00916163 -0.00715585 -0.00549858 
-0.00419415 -0.0032566 -0.00271131 -0.00259667 -0.00296578 -0.00388809 
-0.00545096 -0.00776098 -0.010945 -0.0151508 -0.0205465 -0.0273198 
-0.0356752 -0.0458304 -0.0580108 -0.0724417 -0.0893395 -0.1089 
-0.131288 -0.156619 -0.184952 -0.216274 -0.250489 -0.287413 
-0.326771 -0.368199 -0.411252 -0.455506 -0.5 0.5 0.362949 0.234368 0.121658 0.0294056 -0.0407959 
-0.0900394 -0.121291 -0.138405 -0.145261 -0.145198 -0.140773 
-0.133768 -0.125334 -0.116181 -0.106737 -0.0972646 -0.0879397 
-0.0788855 -0.0701947 -0.0619378 -0.0541666 -0.0469163 -0.040207 
-0.0340448 -0.0284243 -0.0233302 -0.0187393 -0.0146231 -0.0109493 
-0.0076845 -0.00479555 -0.00225171 -2.66218e-05 0.00189971 0.00353994 
0.00489813 0.00596786 0.00673036 0.00715265 0.0071855 0.00676142 
0.00579255 0.00416876 0.00175594 -0.00160527 -0.00609996 -0.0119384 
-0.0193543 -0.0286008 -0.0399453 -0.0536608 -0.0700157 -0.0892605 
-0.111613 -0.13724 -0.166243 -0.19864 -0.23435 -0.273186 
-0.314848 -0.358926 -0.404911 -0.452294 -0.5 0.5 0.36456 0.237374 0.12573 0.0341697 -0.0356689 
-0.0847664 -0.115955 -0.132975 -0.139634 -0.139247 -0.134386 
-0.126869 -0.117892 -0.108204 -0.0982663 -0.0883672 -0.0786963 
-0.0693858 -0.0605319 -0.0522038 -0.0444487 -0.0372945 -0.0307514 
-0.0248144 -0.0194658 -0.0146772 -0.0104124 -0.00662968 -0.00328447 
-0.000331174 0.0022746 0.0045743 0.00660418 0.00839323 0.00996266 
0.0113248 0.012481 0.0134197 0.0141142 0.0145207 0.0145755 
0.0141926 0.013261 0.0116422 0.00916822 0.00563997 0.00082691 
-0.00553182 -0.0137244 -0.0240605 -0.0368633 -0.0524572 -0.0711529 
-0.0932296 -0.118914 -0.148358 -0.181621 -0.218644 -0.259242 
-0.303095 -0.349745 -0.398611 -0.449098 -0.5 0.5 0.366274 0.240571 0.130054 0.0392125 -0.0302715 
-0.0792632 -0.110455 -0.127463 -0.134017 -0.133404 -0.128206 
-0.120278 -0.11086 -0.100743 -0.0904222 -0.080209 -0.0703079 
-0.0608589 -0.0519596 -0.0436763 -0.0360501 -0.0290996 -0.0228243 
-0.0172069 -0.0122166 -0.00781211 -0.00394417 -0.000558732 0.00240065 
0.00499051 0.00726547 0.00927648 0.0110686 0.0126789 0.0141367 
0.0154619 0.0166637 0.017738 0.0186654 0.0194086 0.0199097 
0.0200869 0.0198312 0.0190032 0.0174296 0.0149009 0.0111698 
0.00595098 -0.00107664 -0.0102648 -0.0219875 -0.0366283 -0.0545631 
-0.0761395 -0.101652 -0.131315 -0.165236 -0.203389 -0.245598 
-0.291523 -0.340662 -0.392359 -0.445918 -0.5 0.5 0.368084 0.243946 0.134615 0.0445176 -0.0246209 
-0.0735484 -0.104811 -0.121894 -0.128442 -0.127705 -0.122276 
-0.114041 -0.104287 -0.0938458 -0.0832464 -0.0728241 -0.0627976 
-0.0533128 -0.0444677 -0.0363244 -0.0289161 -0.0222514 -0.0163179 
-0.0110858 -0.00651142 -0.0025405 0.000888297 0.0038405 0.00638306 
0.00858213 0.0105011 0.0121988 0.0137279 0.0151327 0.0164491 
0.0177045 0.0189155 0.0200855 0.0212031 0.0222388 0.0231422 
0.0238379 0.0242221 0.0241575 0.0234698 0.0219431 0.0193173 
0.0152864 0.00949933 0.00156437 -0.00894317 -0.0224676 -0.0394544 
-0.0603259 -0.0854527 -0.11512 -0.149496 -0.188597 -0.232264 
-0.280143 -0.331686 -0.386157 -0.442757 -0.5 0.5 0.369985 0.247491 0.1394 0.0500709 -0.0187315 
-0.0676366 -0.0990391 -0.116287 -0.12293 -0.122178 -0.116625 
-0.108191 -0.0982044 -0.0875404 -0.0767606 -0.0662241 -0.0561629 
-0.0467285 -0.0380179 -0.0300878 -0.0229627 -0.0166404 -0.0110965 
-0.0062888 -0.00216095 0.00135316 0.00432601 0.00683317 0.00895063 
0.0107525 0.0123091 0.0136859 0.0149415 0.0161258 0.0172811 
0.018441 0.019629 0.0208564 0.0221197 0.0233985 0.0246513 
0.0258116 0.0267831 0.0274346 0.0275942 0.0270442 0.0255163 
0.0226883 0.0181833 0.0115726 0.00238208 -0.00989368 -0.0257723 
-0.0457567 -0.070301 -0.0997722 -0.134409 -0.174279 -0.21925 
-0.268962 -0.322821 -0.380011 -0.439617 -0.5 0.5 0.371971 0.251194 0.144397 0.0558603 -0.0126148 
-0.0615386 -0.0931506 -0.110654 -0.117497 -0.116839 -0.111274 
-0.102748 -0.0926308 -0.0818395 -0.070969 -0.0604014 -0.050382 
-0.0410668 -0.0325514 -0.0248862 -0.0180868 -0.0121401 -0.00700971 
-0.00264143 0.00103258 0.00408924 0.00661073 0.00868112 0.0103837 
0.0117987 0.0130021 0.0140638 0.015047 0.0160064 0.0169889 
0.0180339 0.0191713 0.0204197 0.0217844 0.0232543 0.0247982 
0.0263603 0.0278546 0.0291588 0.0301076 0.0304859 0.0300219 
0.0283825 0.0251695 0.0199211 0.012117 0.00119117 -0.0134476 
-0.0323868 -0.0561716 -0.0852595 -0.119971 -0.160438 -0.206564 
-0.257987 -0.314073 -0.373923 -0.436499 -0.5 0.5 0.374037 0.255049 0.149596 0.0618757 -0.00627947 
-0.0552616 -0.0871516 -0.105002 -0.112149 -0.111698 -0.106231 
-0.097719 -0.0875705 -0.0767418 -0.0658613 -0.055334 -0.045418 
-0.0362742 -0.027996 -0.0206278 -0.014176 -0.00861689 -0.00390303 
3.09529e-05 0.00326326 0.00588017 0.00797197 0.00962956 0.0109418 
0.0119934 0.012864 0.0136269 0.0143481 0.0150857 0.0158908 
0.0168073 0.0178708 0.0191073 0.0205305 0.0221394 0.023914 
0.0258105 0.0277554 0.0296383 0.0313039 0.032544 0.0330883 
0.0325978 0.0306587 0.0267808 0.0204016 0.0108967 -0.00239898 
-0.0201604 -0.0430297 -0.0715641 -0.106176 -0.147075 -0.194207 
-0.247222 -0.305445 -0.367896 -0.433404 -0.5 0.5 0.376178 0.259046 0.154987 0.0681087 0.000268051 
-0.0488094 -0.0810436 -0.0993303 -0.106888 -0.106754 -0.101496 
-0.0931029 -0.0830176 -0.072235 -0.061416 -0.0509887 -0.0412243 
-0.0322883 -0.0242726 -0.0172158 -0.0111156 -0.0059385 -0.00162696 
0.00189427 0.00471232 0.00692126 0.00861784 0.00989808 0.0108547 
0.0115755 0.012142 0.0126295 0.0131056 0.013631 0.0142594 
0.0150388 0.01601 0.0172056 0.0186479 0.0203459 0.0222914 
0.0244541 0.0267743 0.0291559 0.031457 0.0334797 0.0349604 
0.0355592 0.0348522 0.0323269 0.0273828 0.0193411 0.007464 
-0.00901265 -0.0308328 -0.058661 -0.0930135 -0.134186 -0.182183 
-0.23667 -0.296943 -0.361932 -0.430335 -0.5 0.5 0.378392 0.26318 0.160564 0.0745524 0.0070238 
-0.0421825 -0.0748238 -0.0936338 -0.101704 -0.101999 -0.0970599 
-0.0888876 -0.0789564 -0.0682973 -0.0576031 -0.047325 -0.0377479 
-0.0290427 -0.0213003 -0.0145543 -0.00879495 -0.00398004 -4.31316e-05 
0.00309933 0.00554185 0.00738465 0.00872928 0.00967529 0.0103178 
0.010746 0.0110424 0.0112825 0.0115351 0.0118619 0.0123188 
0.012957 0.0138219 0.0149523 0.0163787 0.0181201 0.0201807 
0.0225436 0.0251647 0.0279639 0.0308148 0.0335339 0.0358678 
0.0374814 0.0379462 0.0367333 0.0332101 0.0266476 0.016238 
0.00112809 -0.0195314 -0.0465196 -0.0804658 -0.121764 -0.17049 
-0.226335 -0.288567 -0.356035 -0.427292 -0.5 0.5 0.380673 0.267444 0.166318 0.0812016 0.013986 
-0.035378 -0.068485 -0.0879017 -0.0965857 -0.0974175 -0.0929049 
-0.0850532 -0.0753633 -0.0648996 -0.0543862 -0.0442977 -0.0349333 
-0.0264704 -0.0190003 -0.0125528 -0.00711199 -0.00262853 0.000971307 
0.00377777 0.00589108 0.00741596 0.00845721 0.00911645 0.00948982 
0.00966674 0.00972941 0.00975306 0.00980613 0.00995092 0.0102449 
0.0107417 0.0114908 0.0125367 0.0139176 0.0156626 0.0177877 
0.0202903 0.0231421 0.0262802 0.029596 0.0329227 0.0360211 
0.0385652 0.0401279 0.0401696 0.038032 0.0329414 0.024024 
0.0103386 -0.00907119 -0.0351044 -0.068513 -0.109801 -0.159126 
-0.216217 -0.280322 -0.350206 -0.424277 -0.5 0.5 0.383017 0.271831 0.172245 0.0880523 0.0211549 
-0.0283904 -0.062016 -0.0821179 -0.0915123 -0.0929868 -0.0890061 
-0.0815725 -0.0722078 -0.0620073 -0.051725 -0.0418592 -0.0327248 
-0.0245069 -0.017299 -0.0111288 -0.00597595 -0.00178569 0.00152119 
0.00403989 0.00587466 0.00713315 0.00792198 0.0083435 0.00849375 
0.00846138 0.00832749 0.00816611 0.00804491 0.00802614 0.00816823 
0.00852677 0.00915475 0.0101021 0.0114141 0.0131295 0.015276 
0.0178649 0.0208841 0.0242885 0.0279884 0.0318357 0.0356086 
0.0389943 0.0415719 0.0427973 0.0419931 0.0383471 0.0309244 
0.0186988 0.000606447 -0.0243762 -0.0571314 -0.0982846 -0.148087 
-0.206316 -0.272208 -0.344448 -0.42129 -0.5 0.5 0.385423 0.276336 0.178337 0.0951018 0.0285327 
-0.0212115 -0.055402 -0.0762618 -0.0864586 -0.0886779 -0.085332 
-0.0784117 -0.0694539 -0.0595811 -0.049576 -0.0399613 -0.0310683 
-0.0230922 -0.0161302 -0.0102101 -0.00530919 -0.00136933 0.00169231 
0.00397409 0.00558264 0.00662705 0.00721442 0.00744676 0.00741905 
0.00721843 0.00692424 0.00660886 0.00633872 0.00617567 0.00617865 
0.00640493 0.0069106 0.00775041 0.0089766 0.0106366 0.0127695 
0.0154002 0.0185323 0.0221387 0.0261491 0.0304357 0.0347959 
0.0389335 0.0424385 0.0447682 0.0452322 0.0429867 0.037042 
0.0262908 0.00956278 -0.0142926 -0.0462946 -0.0872004 -0.137367 
-0.196632 -0.264227 -0.338761 -0.418333 -0.5 0.5 0.387886 0.280955 0.184592 0.102349 0.036123 
-0.0138305 -0.048625 -0.0703082 -0.0813937 -0.0844558 -0.0818447 
-0.0755311 -0.0670601 -0.0575778 -0.0478942 -0.0385559 -0.0299127 
-0.0221714 -0.0154355 -0.00973519 -0.00504774 -0.00131362 0.00155156 
0.00364751 0.00508161 0.00596303 0.00639819 0.0064878 0.00632507 
0.00599507 0.00557502 0.00513532 0.00474095 0.00445313 0.00433113 
0.00443365 0.00481958 0.0055481 0.00667776 0.0082644 0.0103575 
0.012995 0.0161958 0.01995 0.024207 0.0288594 0.0337256 
0.0385286 0.0428729 0.0462223 0.0478803 0.0469781 0.0424778 
0.0331968 0.0178609 -0.00480877 -0.035974 -0.0765325 -0.126959 
-0.187162 -0.25638 -0.333148 -0.415407 -0.5 0.5 0.390404 0.285682 0.191005 0.109792 0.0439313 
-0.0062344 -0.0416636 -0.064228 -0.0762818 -0.08028 -0.0785007 
-0.0728854 -0.0649806 -0.0559514 -0.0466328 -0.0375958 -0.0292099 
-0.0216955 -0.0151652 -0.00965375 -0.00514101 -0.00156839 0.00114806 
0.00310756 0.00441676 0.00518358 0.00551277 0.00550298 0.00524507 
0.00482172 0.00430779 0.00377162 0.00327669 0.00288356 0.00265174 
0.00264122 0.00291351 0.00353189 0.00456075 0.00606362 0.00809981 
0.0107192 0.0139551 0.0178142 0.0222645 0.0272195 0.0325189 
0.0379064 0.0430044 0.0472878 0.0500595 0.0504332 0.0473303 
0.0394987 0.0255645 0.00412138 -0.0261391 -0.0662634 -0.116855 
-0.177905 -0.248667 -0.327609 -0.412513 -0.5 0.5 0.392973 0.290515 0.197572 0.117433 0.0519642 
0.00159145 -0.0344939 -0.0579884 -0.0710827 -0.0761045 -0.0752507 
-0.070424 -0.0631649 -0.0546521 -0.0457437 -0.0370345 -0.0289148 
-0.021621 -0.0152771 -0.0099254 -0.00555069 -0.00209775 0.000514858 
0.00238413 0.00361444 0.00431132 0.00457696 0.0045073 0.00419051 
0.00370662 0.00312813 0.00252137 0.00194841 0.00146923 0.00114364 
0.00103293 0.00120109 0.00171526 0.00264518 0.00406148 0.00603243 
0.00861889 0.0118672 0.0157997 0.0204021 0.0256075 0.0312772 
0.0371764 0.0429476 0.0480804 0.0518829 0.0534581 0.051694 
0.0452766 0.0327375 0.012545 -0.0167584 -0.0563745 -0.107046 
-0.168858 -0.24109 -0.322147 -0.409651 -0.5 0.5 0.395592 0.295448 0.204292 0.125272 0.0602292 
0.00966356 -0.0270896 -0.0515534 -0.0657519 -0.0718787 -0.0720401 
-0.068091 -0.0615576 -0.053627 -0.0451769 -0.0368254 -0.0289844 
-0.0219087 -0.0157358 -0.0105185 -0.00624914 -0.00287813 -0.000328713 
0.00149214 0.00268513 0.00335231 0.00359251 0.00349846 0.00315536 
0.00264052 0.00202414 0.00137075 0.000741235 0.000195174 -0.000207159 
-0.000403091 -0.000326196 9.42953e-05 0.000933111 0.00226733 0.00417327 
0.00672169 0.00997077 0.0139568 0.0186817 0.0240972 0.0300851 
0.0364326 0.0428032 0.0487045 0.0534544 0.0561518 0.055659 
0.0506081 0.0394429 0.0205093 -0.00779938 -0.0468462 -0.0975218 
-0.160018 -0.233647 -0.316761 -0.406822 -0.5 0.5 0.398259 0.300479 0.211162 0.133312 0.0687354 
0.0179999 -0.0194225 -0.0448842 -0.0602413 -0.0675475 -0.0688098 
-0.0658256 -0.0600991 -0.0528192 -0.0448798 -0.0369211 -0.0293771 
-0.0225224 -0.0165109 -0.0114084 -0.00721713 -0.00389584 -0.00137438 
0.000434582 0.00162672 0.00229955 0.00254787 0.00246078 0.00212028 
0.00160102 0.00097107 0.000293393 -0.000371991 -0.000965608 -0.0014265 
-0.00169047 -0.00168863 -0.00134673 -0.000585444 0.000678121 0.00252748 
0.00504204 0.00829039 0.0123211 0.0171506 0.0227476 0.029013 
0.035755 0.0426593 0.0492532 0.0548686 0.0586063 0.0593108 
0.0555682 0.0457422 0.0280614 0.000770532 -0.0376585 -0.0882728 
-0.15138 -0.226339 -0.311454 -0.404027 -0.5 0.5 0.400973 0.305609 0.218183 0.141556 0.0774939 
0.0266204 -0.011462 -0.0379399 -0.0545005 -0.0630526 -0.0654963 
-0.0635628 -0.0587252 -0.0521681 -0.0447971 -0.0372725 -0.0300507 
-0.0234274 -0.017575 -0.0125746 -0.00844134 -0.00514421 -0.00262182 
-0.000794223 0.000427911 0.00113663 0.001422 0.00136914 0.00105674 
0.000556844 -6.43935e-05 -0.000745233 -0.00142616 -0.00204749 -0.0025473 
-0.00285966 -0.0029132 -0.0026303 -0.00192742 -0.000716431 0.00109242 
0.003586 0.00684176 0.0109188 0.015846 0.0216068 0.0281197 
0.0352129 0.0425933 0.0498098 0.0562116 0.0609067 0.0627291 
0.060228 0.0516948 0.0352473 0.0089839 -0.0287909 -0.0792881 
-0.142942 -0.219166 -0.306224 -0.401265 -0.5 0.5 0.403735 0.310838 0.225358 0.150012 0.086517 
0.0355466 -0.00317632 -0.0306771 -0.0484756 -0.0583319 -0.0620321 
-0.0612324 -0.0573666 -0.0516078 -0.0448687 -0.0378269 -0.0309607 
-0.0245878 -0.0189009 -0.0139987 -0.00991136 -0.00662057 -0.00407557 
-0.00220543 -0.000928425 -0.000158917 0.000187821 0.000192571 -6.93684e-05 
-0.000528467 -0.00112026 -0.00178387 -0.00245992 -0.00308815 -0.00360539 
-0.0039438 -0.00402942 -0.00378143 -0.00311238 -0.00192959 -0.000137963 
0.00235559 0.00563575 0.00977019 0.0147982 0.0207158 0.0274566 
0.034867 0.0426747 0.0504505 0.0575632 0.063133 0.0659907 
0.0646566 0.057359 0.0421124 0.0168726 -0.0202243 -0.0705587 
-0.134701 -0.21213 -0.301074 -0.398538 -0.5 0.5 0.406543 0.316164 0.232685 0.158682 0.095816 
0.0447996 0.00546794 -0.02305 -0.0421084 -0.053317 -0.0583416 
-0.0587555 -0.0559447 -0.0510634 -0.0450259 -0.038524 -0.0320564 
-0.025963 -0.0204582 -0.0156602 -0.0116163 -0.00832285 -0.00574163 
-0.00381226 -0.00246187 -0.00161214 -0.00118428 -0.0011022 -0.0012941 
-0.00169289 -0.00223554 -0.00286174 -0.00351188 -0.00412477 -0.00463573 
-0.00497481 -0.00506543 -0.0048237 -0.00415866 -0.00297368 -0.00116928 
0.00135255 0.00468212 0.00889375 0.0140348 0.0201114 0.0270701 
0.0347731 0.0429676 0.051246 0.0589987 0.065362 0.0691696 
0.0689217 0.0627929 0.0487019 0.024468 -0.0119408 -0.0620785 
-0.12666 -0.205237 -0.296014 -0.395852 -0.5 0.5 0.409394 0.321582 0.240163 0.167569 0.1054 
0.0543997 0.0145043 -0.0150103 -0.0353371 -0.0479341 -0.0543424 
-0.0560448 -0.0543715 -0.05045 -0.0451902 -0.0392939 -0.0332781 
-0.0275046 -0.0222099 -0.0175332 -0.0135407 -0.0102454 -0.00762311 
-0.0056256 -0.00419001 -0.00324624 -0.00272206 -0.0025464 -0.00265114 
-0.00297159 -0.00344599 -0.00401431 -0.00461635 -0.00518975 -0.00566806 
-0.0059791 -0.00604368 -0.005775 -0.00507901 -0.00385584 -0.0020026 
0.000582311 0.0039932 0.00830902 0.0135829 0.0198287 0.0270028 
0.0349815 0.0435294 0.0522599 0.0605859 0.067663 0.0723338 
0.0730864 0.0680507 0.0550592 0.0318007 -0.00392218 -0.05384 
-0.118818 -0.198494 -0.291049 -0.393211 -0.5 0.5 0.412285 0.327089 0.247789 0.176674 0.115279 
0.064367 0.0239664 -0.00650961 -0.0280979 -0.042106 -0.0499466 
-0.0530059 -0.0525502 -0.0496726 -0.045272 -0.0400553 -0.0345549 
-0.029153 -0.0241082 -0.0195819 -0.0156602 -0.0123742 -0.00971548 
-0.00764917 -0.00612357 -0.00507771 -0.00444654 -0.00416444 -0.00416713 
-0.00439237 -0.00477957 -0.00526877 -0.00579897 -0.00630641 -0.00672271 
-0.00697341 -0.00697679 -0.00664344 -0.00587671 -0.00457424 -0.00263081 
5.74489e-05 0.00358711 0.00803976 0.013472 0.0199028 0.0272961 
0.0355393 0.0444125 0.0535491 0.0623849 0.0700976 0.0755438 
0.077207 0.0731819 0.0612244 0.0389 0.00384988 -0.0458344 
-0.111175 -0.191901 -0.286183 -0.390618 -0.5 0.5 0.415213 0.332679 0.255559 0.185998 0.125461 
0.0747207 0.0338874 0.00250103 -0.0203258 -0.0357524 -0.0450615 
-0.0495372 -0.0503746 -0.0486249 -0.0451689 -0.0407131 -0.0358013 
-0.030834 -0.0260913 -0.0217564 -0.0179366 -0.0146821 -0.0120015 
-0.00987435 -0.0082613 -0.00711128 -0.00636709 -0.00596899 -0.00585684 
-0.00597094 -0.0062519 -0.0066397 -0.00707245 -0.00748483 -0.00780656 
-0.00796094 -0.00786394 -0.00742392 -0.00654225 -0.00511495 -0.00303558 
-0.000199469 0.00349052 0.00811661 0.0137366 0.020372 0.0279919 
0.036492 0.0456661 0.055166 0.0644506 0.0727217 0.0788544 
0.081335 0.0782321 0.0672345 0.0457932 0.0113925 -0.0380537 
-0.103729 -0.185463 -0.281422 -0.388076 -0.5 0.5 0.418175 0.33835 0.263472 0.195543 0.135953 
0.0854795 0.0442993 0.0120699 -0.0119552 -0.028791 -0.0395901 
-0.0455303 -0.0477294 -0.047189 -0.0447645 -0.0411562 -0.0369146 
-0.0324553 -0.0280783 -0.023988 -0.0203131 -0.0171235 -0.0144456 
-0.0122747 -0.0105844 -0.00933433 -0.00847587 -0.00795564 -0.00771795 
-0.00770588 -0.00786131 -0.00812428 -0.00843194 -0.00871754 -0.00890895 
-0.00892749 -0.00868718 -0.00809469 -0.00705016 -0.00544898 -0.00318473 
-0.000153432 0.00374089 0.00857909 0.014418 0.0212793 0.0291345 
0.0378857 0.0473377 0.0571596 0.0668331 0.0755856 0.082315 
0.0855168 0.0832423 0.0731233 0.0525052 0.0187213 -0.030491 
-0.0964803 -0.179182 -0.276767 -0.385588 -0.5 0.5 0.421169 0.344098 0.271524 0.205309 0.146764 
0.0966603 0.0552329 0.0222442 -0.00292068 -0.0211381 -0.0334317 
-0.0408706 -0.0444896 -0.0452342 -0.0439272 -0.0412559 -0.0377722 
-0.0339032 -0.0299659 -0.0261848 -0.0227091 -0.0196288 -0.0169887 
-0.0148001 -0.0130505 -0.011711 -0.010742 -0.010097 -0.0097253 
-0.009573 -0.00958354 -0.00969715 -0.00985029 -0.00997492 -0.00999743 
-0.00983753 -0.00940785 -0.0086141 -0.0073561 -0.00552973 -0.00302995 
0.000245 0.00438816 0.00947709 0.0155656 0.0226731 0.0307717 
0.0397673 0.0494737 0.0595761 0.0695782 0.0787348 0.0859695 
0.0897934 0.0882491 0.0789209 0.059058 0.0258498 -0.0231404 
-0.0894285 -0.173062 -0.272226 -0.383157 -0.5 0.5 0.424193 0.34992 0.279714 0.215296 0.157899 
0.108279 0.066717 0.0330692 0.00684194 -0.0127097 -0.0264832 
-0.0354379 -0.0405219 -0.0426179 -0.0425096 -0.0408643 -0.0382298 
-0.0350397 -0.0316246 -0.028227 -0.0250155 -0.0220995 -0.0195419 
-0.0173707 -0.0155875 -0.0141757 -0.013105 -0.0123366 -0.0118248 
-0.0115195 -0.011366 -0.0113051 -0.0112729 -0.0112005 -0.0110134 
-0.0106303 -0.00996307 -0.00891752 -0.00739421 -0.00529076 -0.00250496 
0.00106113 0.00549587 0.0108717 0.0172373 0.0246083 0.0329548 
0.0421847 0.0521195 0.0624584 0.0727273 0.0822089 0.0898559 
0.0942002 0.0932838 0.0846531 0.0654708 0.0327894 -0.0159978 
-0.0825754 -0.167109 -0.267802 -0.380785 -0.5 0.5 0.427246 0.355813 0.288037 0.225504 0.169363 
0.120348 0.0787777 0.0445876 0.0173948 -0.0034225 -0.01864 
-0.0291082 -0.0356851 -0.039186 -0.0403487 -0.0398143 -0.0381198 
-0.0357002 -0.0328959 -0.0299638 -0.0270901 -0.0244024 -0.0219813 
-0.019871 -0.0180878 -0.0166271 -0.015469 -0.0145824 -0.0139276 
-0.0134583 -0.0131224 -0.0128618 -0.0126129 -0.0123067 -0.0118682 
-0.0112161 -0.0102627 -0.00891482 -0.00707505 -0.00464421 -0.0015244 
0.00237685 0.00714154 0.0128352 0.0194999 0.0271453 0.0357383 
0.0451869 0.0553187 0.0658462 0.0763169 0.086042 0.0940061 
0.0987668 0.0983727 0.0903415 0.0717589 0.0395491 -0.00906063 
-0.0759235 -0.161327 -0.263501 -0.378478 -0.5 0.5 0.430326 0.361773 0.296491 0.235931 0.181159 
0.13288 0.0914385 0.056839 0.028797 0.00680458 -0.00979818 
-0.0217547 -0.0298322 -0.0347743 -0.0372673 -0.0379196 -0.0372513 
-0.0356931 -0.0335901 -0.0312103 -0.0287544 -0.0263663 -0.0241432 
-0.022145 -0.0204022 -0.0189226 -0.0176966 -0.0167014 -0.0159037 
-0.015262 -0.014727 -0.0142428 -0.0137466 -0.0131702 -0.0124393 
-0.0114736 -0.010187 -0.00848852 -0.00628439 -0.00348006 1.64325e-05 