# vtk DataFile Version 2.0 
Lid_driven streamfuntion-vorticity 
ASCII 
DATASET RECTILINEAR_GRID 
DIMENSIONS 21 41 1
X_COORDINATES 21 float 
0 
0.05 0.1 0.15 0.2 0.25 0.3 
0.35 0.4 0.45 0.5 0.55 0.6 
0.65 0.7 0.75 0.8 0.85 0.9 
0.95 1 
Y_COORDINATES 41 float 
0 
0.05 0.1 0.15 0.2 0.25 0.3 
0.35 0.4 0.45 0.5 0.55 0.6 
0.65 0.7 0.75 0.8 0.85 0.9 
0.95 1 1.05 1.1 1.15 1.2 
1.25 1.3 1.35 1.4 1.45 1.5 
1.55 1.6 1.65 1.7 1.75 1.8 
1.85 1.9 1.95 2 
Z_COORDINATES 1 float 
0 

POINT_DATA 861
SCALARS Error float
LOOKUP_TABLE default 
0 0 0 0 0 0 
0 0 0 0 0 0 
0 0 0 0 0 0 
0 0 0 0 1.27425 0.70037 0.0895409 0.233937 0.178056 
0.155483 0.168455 0.115236 0.162784 0.108591 0.162785 
0.115234 0.168458 0.15548 0.178059 0.233933 0.0895446 
0.700366 1.27424 0 0 1.12599 0.379038 0.0970483 0.052407 0.00105089 
0.00801847 0.0326431 0.0271809 0.0418969 0.0317415 0.0418976 
0.0271822 0.0326449 0.00802067 0.00105335 0.0524044 0.0970456 
0.379036 1.12599 0 0 1.08804 0.609066 0.141592 0.0367925 0.0126101 
0.0362991 0.0494331 0.0557238 0.0595218 0.0600764 0.0595223 
0.0557248 0.0494344 0.0363007 0.0126118 0.0367906 0.141591 
0.609064 1.08803 0 0 0.184072 0.0911571 0.0249259 0.0157463 0.0460263 
0.0633519 0.0728577 0.0779799 0.0804997 0.0812259 0.0805001 
0.0779805 0.0728586 0.063353 0.0460276 0.0157476 0.0249246 
0.0911561 0.184073 0 0 0.110207 0.0272585 0.057967 0.0694064 0.0825024 
0.0916433 0.0971368 0.100149 0.101576 0.10199 0.101576 
0.100149 0.0971375 0.0916441 0.0825032 0.0694071 0.0579676 
0.0272589 0.110207 0 0 0.0899972 0.0726955 0.103968 0.108777 0.11346 
0.117016 0.119323 0.120526 0.120996 0.121105 0.120996 
0.120527 0.119323 0.117017 0.11346 0.108777 0.103968 
0.0726952 0.0899964 0 0 0.121911 0.104755 0.130526 0.134172 0.136235 
0.137341 0.137884 0.137989 0.13787 0.137794 0.13787 
0.137989 0.137884 0.137342 0.136235 0.134172 0.130525 
0.104754 0.12191 0 0 0.112172 0.111936 0.140856 0.147633 0.150579 
0.151646 0.151887 0.151725 0.151448 0.151321 0.151448 
0.151725 0.151887 0.151646 0.150579 0.147632 0.140855 
0.111934 0.11217 0 0 0.0963981 0.111794 0.142463 0.152796 0.157922 
0.160242 0.161219 0.161459 0.161363 0.161283 0.161363 
0.16146 0.161219 0.160242 0.157922 0.152795 0.142462 
0.111792 0.0963956 0 0 0.0849702 0.108266 0.139711 0.153001 0.160451 
0.164451 0.166598 0.167585 0.167883 0.16792 0.167883 
0.167585 0.166597 0.16445 0.16045 0.153 0.139709 
0.108263 0.0849672 0 0 0.0811246 0.103525 0.134938 0.150344 0.159819 
0.165482 0.168843 0.170671 0.171476 0.171685 0.171476 
0.170671 0.168843 0.165481 0.159818 0.150342 0.134935 
0.103522 0.0811212 0 0 0.0753677 0.0979075 0.128847 0.145712 0.156809 
0.163941 0.16846 0.171127 0.172451 0.172837 0.172451 
0.171126 0.168459 0.16394 0.156807 0.14571 0.128844 
0.0979041 0.0753639 0 0 0.0655601 0.0917191 0.121969 0.139804 0.1521 
0.160418 0.16597 0.16941 0.171195 0.171731 0.171195 
0.169409 0.165969 0.160416 0.152097 0.1398 0.121965 
0.0917153 0.065556 0 0 0.0583329 0.0858546 0.115122 0.133444 0.146529 
0.155716 0.162074 0.166143 0.168313 0.168974 0.168312 
0.166141 0.162072 0.155713 0.146525 0.13344 0.115117 
0.0858501 0.0583283 0 0 0.0554097 0.0806423 0.108699 0.127094 0.140628 
0.150402 0.15731 0.161834 0.164317 0.165093 0.164316 
0.161832 0.157307 0.150399 0.140624 0.12709 0.108694 
0.0806372 0.0554046 0 0 0.0519698 0.0756903 0.102522 0.120754 0.134483 
0.144615 0.151893 0.156741 0.159456 0.160317 0.159454 
0.156739 0.15189 0.144611 0.134478 0.120749 0.102517 
0.0756847 0.0519642 0 0 0.0464909 0.0708618 0.0965335 0.114473 0.1282 
0.1385 0.146023 0.151096 0.153957 0.154867 0.153956 
0.151093 0.146019 0.138495 0.128195 0.114467 0.0965276 
0.0708557 0.0464848 0 0 0.0422296 0.0665002 0.0910017 0.108513 0.122082 
0.132396 0.140026 0.145222 0.148167 0.149105 0.148166 
0.145219 0.140022 0.132391 0.122077 0.108507 0.0909955 
0.0664937 0.0422231 0 0 0.0404739 0.0627456 0.0860559 0.103014 0.116315 
0.12653 0.134136 0.139355 0.142345 0.143305 0.142343 
0.139352 0.134131 0.126525 0.116309 0.103008 0.0860495 
0.062739 0.0404672 0 0 0.0386294 0.059306 0.0815005 0.0978668 0.110826 
0.120859 0.128369 0.133551 0.136543 0.137511 0.136541 
0.133548 0.128364 0.120854 0.11082 0.0978605 0.0814941 
0.0592994 0.0386227 0 0 0.0354558 0.0560261 0.0772216 0.0930057 0.105574 
0.115364 0.122742 0.127856 0.130811 0.131765 0.130809 
0.127853 0.122737 0.115359 0.105568 0.0929994 0.0772152 
0.0560196 0.0354494 0 0 0.0328513 0.0531008 0.0733535 0.0885441 0.10069 
0.110193 0.117395 0.122403 0.125296 0.126228 0.125294 
0.1224 0.11739 0.110188 0.100684 0.0885381 0.0733473 
0.0530947 0.0328452 0 0 0.0319818 0.0506368 0.0699713 0.0845436 0.0962499 
0.105442 0.112415 0.117278 0.120101 0.121015 0.120099 
0.117275 0.112411 0.105437 0.0962445 0.0845379 0.0699656 
0.0506311 0.0319763 0 0 0.0311798 0.0484237 0.0669165 0.0808876 0.0921481 
0.101011 0.107738 0.112437 0.115176 0.116067 0.115174 
0.112434 0.107734 0.101007 0.0921432 0.0808826 0.0669114 
0.0484186 0.0311748 0 0 0.0292591 0.0463159 0.064072 0.0774847 0.0882983 
0.096818 0.103302 0.107835 0.110471 0.111325 0.110469 
0.107832 0.103298 0.0968137 0.0882939 0.0774802 0.0640675 
0.0463113 0.0292546 0 0 0.0275829 0.0444457 0.0615199 0.0743895 0.0847562 
0.0929232 0.0991505 0.103505 0.10603 0.106845 0.106028 
0.103502 0.0991468 0.0929193 0.0847523 0.0743856 0.061516 
0.0444418 0.0275789 0 0 0.027362 0.0429116 0.0593182 0.0716342 0.081554 
0.0893629 0.0953045 0.0994579 0.101871 0.102653 0.10187 
0.0994552 0.0953011 0.0893593 0.0815504 0.0716308 0.0593148 
0.0429081 0.0273585 0 0 0.0272705 0.041544 0.0573272 0.0691002 0.0785685 
0.0860081 0.0916522 0.095593 0.0978866 0.0986314 0.0978852 
0.0955905 0.0916491 0.0860048 0.0785653 0.0690971 0.0573242 
0.0415409 0.0272673 0 0 0.0260319 0.0401925 0.0554185 0.066671 0.0756771 
0.0827283 0.0880745 0.0918004 0.093957 0.0946529 0.0939558 
0.0917983 0.0880718 0.0827254 0.0756743 0.0666683 0.0554157 
0.0401896 0.0260289 0 0 0.0248431 0.0389527 0.0536377 0.0643575 0.0728797 
0.079518 0.0845448 0.0880385 0.0900459 0.0906886 0.090045 
0.0880367 0.0845425 0.0795155 0.0728772 0.0643551 0.0536351 
0.0389499 0.0248401 0 0 0.0250792 0.0379174 0.0520233 0.0621576 0.0701609 
0.0763553 0.0810168 0.0842443 0.0860966 0.08669 0.0860958 
0.0842429 0.081015 0.0763533 0.0701588 0.0621553 0.0520208 
0.0379146 0.0250761 0 0 0.0254792 0.0369143 0.0504117 0.0599095 0.0673419 
0.0730459 0.0773046 0.0802384 0.0819187 0.0824571 0.0819182 
0.0802374 0.0773032 0.0730442 0.0673399 0.0599072 0.0504091 
0.0369114 0.025476 0 0 0.0245189 0.0357334 0.048602 0.0574096 0.0641998 
0.0693502 0.0731776 0.0757981 0.0772784 0.0777457 0.077278 
0.0757973 0.0731764 0.0693487 0.0641979 0.0574073 0.0485993 
0.0357303 0.0245154 0 0 0.0234122 0.0343968 0.0465371 0.0545464 0.0606005 
0.0651229 0.0684692 0.0707434 0.0720008 0.0723879 0.0720006 
0.0707428 0.0684682 0.0651214 0.0605985 0.0545439 0.0465343 
0.0343935 0.0234086 0 0 0.0237209 0.0328576 0.0441039 0.0511483 0.0563548 
0.0601717 0.0629631 0.0648427 0.0658662 0.0661765 0.065866 
0.0648421 0.0629621 0.0601702 0.0563528 0.0511458 0.0441009 
0.0328543 0.0237171 0 0 0.0239895 0.03073 0.0408933 0.0467946 0.0510246 
0.0540513 0.0562386 0.0576957 0.0584678 0.0586943 0.0584676 
0.0576951 0.0562375 0.0540497 0.0510226 0.046792 0.0408903 
0.0307266 0.0239857 0 0 0.0235242 0.027708 0.0364111 0.040964 0.0440936 
0.0462569 0.0478222 0.0488548 0.0493598 0.0494902 0.0493595 
0.0488542 0.0478211 0.0462554 0.0440917 0.0409616 0.0364083 
0.0277046 0.0235205 0 0 0.0136391 0.0188328 0.027676 0.0307634 0.0328416 
0.0341996 0.0352022 0.0358648 0.0361257 0.0361645 0.0361254 
0.0358642 0.0352012 0.0341982 0.0328398 0.0307612 0.0276733 
0.0188296 0.0136355 0 0 0.0173136 0.0140646 0.0240468 0.0248081 0.0245599 
0.0241227 0.025299 0.0263111 0.0255067 0.0246592 0.0255064 
0.0263105 0.0252982 0.0241216 0.0245584 0.0248062 0.0240443 
0.0140617 0.0173103 0 0 0 0 0 0 0 
0 0 0 0 0 0 
0 0 0 0 0 0 
0 0 0 