# vtk DataFile Version 2.0 
Lid_driven streamfuntion-vorticity 
ASCII 
DATASET RECTILINEAR_GRID 
DIMENSIONS 21 41 1
X_COORDINATES 21 float 
0 
0.05 0.1 0.15 0.2 0.25 0.3 
0.35 0.4 0.45 0.5 0.55 0.6 
0.65 0.7 0.75 0.8 0.85 0.9 
0.95 1 
Y_COORDINATES 41 float 
0 
0.05 0.1 0.15 0.2 0.25 0.3 
0.35 0.4 0.45 0.5 0.55 0.6 
0.65 0.7 0.75 0.8 0.85 0.9 
0.95 1 1.05 1.1 1.15 1.2 
1.25 1.3 1.35 1.4 1.45 1.5 
1.55 1.6 1.65 1.7 1.75 1.8 
1.85 1.9 1.95 2 
Z_COORDINATES 1 float 
0 

POINT_DATA 861
SCALARS Temperature float
LOOKUP_TABLE default 
100 100 100 100 100 100 
100 100 100 100 100 100 
100 100 100 100 100 100 
100 100 100 0 50.0765 69.641 78.968 83.0982 86.2107 
87.5795 88.9952 89.3964 90.0547 89.9062 90.0547 
89.3964 88.9952 87.5795 86.2107 83.0982 78.968 
69.641 50.0765 0 0 29.0039 48.9444 60.9817 68.3078 73.0007 
76.0586 78.0963 79.3702 80.0967 80.3152 80.0967 
79.3702 78.0963 76.0586 73.0007 68.3078 60.9817 
48.9444 29.0039 0 0 19.7157 35.8851 47.6458 55.8316 61.49 
65.3952 68.0526 69.7719 70.7398 71.0517 70.7398 
69.7719 68.0526 65.3952 61.49 55.8316 47.6458 
35.8851 19.7157 0 0 14.5922 27.4935 37.8911 45.8215 51.6916 
55.9432 58.9311 60.9068 62.0324 62.398 62.0324 
60.9068 58.9311 55.9432 51.6916 45.8215 37.8911 
27.4935 14.5922 0 0 11.3429 21.7578 30.6583 37.8709 43.4949 
47.7367 50.8073 52.8795 54.0752 54.466 54.0752 
52.8795 50.8073 47.7367 43.4949 37.8709 30.6583 
21.7578 11.3429 0 0 9.0882 17.6121 25.1585 31.5244 36.6797 
40.6941 43.6733 45.7202 46.9151 47.3078 46.9151 
45.7202 43.6733 40.6941 36.6797 31.5244 25.1585 
17.6121 9.0882 0 0 7.42632 14.4816 20.8691 26.4046 31.0107 
34.6855 37.4676 39.4077 40.5515 40.9293 40.5515 
39.4077 37.4676 34.6855 31.0107 26.4046 20.8691 
14.4816 7.42632 0 0 6.14905 12.039 17.4503 22.2269 26.2793 
29.5715 32.1026 33.889 34.9507 35.3027 34.9507 
33.889 32.1026 29.5715 26.2793 22.2269 17.4503 
12.039 6.14905 0 0 5.13798 10.0863 14.6777 18.7827 22.3138 
25.2212 27.4829 29.0941 30.0577 30.3783 30.0577 
29.0941 27.4829 25.2212 22.3138 18.7827 14.6777 
10.0863 5.13798 0 0 4.32056 8.49703 12.3988 15.9186 18.9767 
21.5195 23.515 24.9467 25.8073 26.0943 25.8073 
24.9467 23.515 21.5195 18.9767 15.9186 12.3988 
8.49703 4.32056 0 0 3.64958 7.18652 10.5066 13.5209 16.1585 
18.3675 20.1126 21.3713 22.1307 22.3845 22.1307 
21.3713 20.1126 18.3675 16.1585 13.5209 10.5066 
7.18652 3.64958 0 0 3.09273 6.09541 8.92358 11.5028 13.7716 
15.6817 17.198 18.2961 18.9606 19.1829 18.9606 
18.2961 17.198 15.6817 13.7716 11.5028 8.92358 
6.09541 3.09273 0 0 2.62688 5.18055 7.59161 9.79766 11.7454 
13.3917 14.7032 15.6558 16.2334 16.4269 16.2334 
15.6558 14.7032 13.3917 11.7454 9.79766 7.59161 
5.18055 2.62688 0 0 2.23488 4.40948 6.46621 8.35248 10.0225 
11.4379 12.5685 13.3915 13.8914 14.059 13.8914 
13.3915 12.5685 11.4379 10.0225 8.35248 6.46621 
4.40948 2.23488 0 0 1.90364 3.75715 5.51238 7.12491 8.55535 
9.77027 10.7426 11.4515 11.8826 12.0272 11.8826 
11.4515 10.7426 9.77027 8.55535 7.12491 5.51238 
3.75715 1.90364 0 0 1.62285 3.20372 4.70213 6.08042 7.30483 
8.34633 9.18102 9.79035 10.1612 10.2857 10.1612 
9.79035 9.18102 8.34633 7.30483 6.08042 4.70213 
3.20372 1.62285 0 0 1.38429 2.73324 4.01267 5.19058 6.2381 
7.1301 7.84572 8.3686 8.68701 8.79392 8.68701 
8.3686 7.84572 7.1301 6.2381 5.19058 4.01267 
2.73324 1.38429 0 0 1.18126 2.33266 3.42524 4.43178 5.32759 
6.09102 6.70395 7.15209 7.42511 7.51681 7.42511 
7.15209 6.70395 6.09102 5.32759 4.43178 3.42524 
2.33266 1.18126 0 0 1.00826 1.9912 2.92425 3.78425 4.55005 
5.20307 5.72765 6.11137 6.34523 6.42379 6.34523 
6.11137 5.72765 5.20307 4.55005 3.78425 2.92425 
1.9912 1.00826 0 0 0.860682 1.69987 2.49666 3.23132 3.88579 
4.4441 4.89279 5.2211 5.42125 5.48849 5.42125 
5.2211 4.89279 4.4441 3.88579 3.23132 2.49666 
1.69987 0.860682 0 0 0.734703 1.45113 2.13148 2.75895 3.31808 
3.79523 4.17879 4.45953 4.63069 4.68821 4.63069 
4.45953 4.17879 3.79523 3.31808 2.75895 2.13148 
1.45113 0.734703 0 0 0.627086 1.23861 1.81943 2.3552 2.83272 
3.24032 3.56804 3.80795 3.95425 4.00341 3.95425 
3.80795 3.56804 3.24032 2.83272 2.3552 1.81943 
1.23861 0.627086 0 0 0.535097 1.05694 1.55264 2.00994 2.41759 
2.76561 3.04547 3.25037 3.37534 3.41733 3.37534 
3.25037 3.04547 2.76561 2.41759 2.00994 1.55264 
1.05694 0.535097 0 0 0.456413 0.901542 1.32439 1.71453 2.06236 
2.35933 2.59817 2.77306 2.87973 2.91557 2.87973 
2.77306 2.59817 2.35933 2.06236 1.71453 1.32439 
0.901542 0.456413 0 0 0.389062 0.768516 1.129 1.46161 1.75818 
2.01141 2.2151 2.36425 2.45522 2.4858 2.45522 
2.36425 2.2151 2.01141 1.75818 1.46161 1.129 
0.768516 0.389062 0 0 0.331361 0.654544 0.961579 1.2449 1.49753 
1.71325 1.88678 2.01386 2.09137 2.11742 2.09137 
2.01386 1.88678 1.71325 1.49753 1.2449 0.961579 
0.654544 0.331361 0 0 0.28187 0.556789 0.817978 1.059 1.27392 
1.45746 1.60511 1.71323 1.77918 1.80135 1.77918 
1.71323 1.60511 1.45746 1.27392 1.059 0.817978 
0.556789 0.28187 0 0 0.239361 0.47282 0.694626 0.899312 1.08184 
1.23772 1.36311 1.45495 1.51097 1.52979 1.51097 
1.45495 1.36311 1.23772 1.08184 0.899312 0.694626 
0.47282 0.239361 0 0 0.202776 0.400555 0.588464 0.761873 0.916513 
1.04858 1.15482 1.23263 1.28009 1.29605 1.28009 
1.23263 1.15482 1.04858 0.916513 0.761873 0.588464 
0.400555 0.202776 0 0 0.17121 0.338202 0.496861 0.643281 0.773854 
0.885369 0.975081 1.04078 1.08086 1.09433 1.08086 
1.04078 0.975081 0.885369 0.773854 0.643281 0.496861 
0.338202 0.17121 0 0 0.14388 0.284216 0.41755 0.540599 0.650333 
0.744052 0.819448 0.874667 0.908351 0.919672 0.908351 
0.874667 0.819448 0.744052 0.650333 0.540599 0.41755 
0.284216 0.14388 0 0 0.120109 0.23726 0.348566 0.451288 0.542895 
0.621132 0.684075 0.730173 0.758294 0.767745 0.758294 
0.730173 0.684075 0.621132 0.542895 0.451288 0.348566 
0.23726 0.120109 0 0 0.0993088 0.196172 0.288203 0.373136 0.448881 
0.513571 0.565615 0.603731 0.626983 0.634798 0.626983 
0.603731 0.565615 0.513571 0.448881 0.373136 0.288203 
0.196172 0.0993088 0 0 0.0809647 0.159935 0.234967 0.304212 0.365966 
0.418708 0.461139 0.492216 0.511173 0.517545 0.511173 
0.492216 0.461139 0.418708 0.365966 0.304212 0.234967 
0.159935 0.0809647 0 0 0.0646228 0.127654 0.187542 0.242811 0.2921 
0.334197 0.368065 0.39287 0.408001 0.413087 0.408001 
0.39287 0.368065 0.334197 0.2921 0.242811 0.187542 
0.127654 0.0646228 0 0 0.0498789 0.0985294 0.144754 0.187413 0.225458 
0.25795 0.284091 0.303237 0.314916 0.318842 0.314916 
0.303237 0.284091 0.25795 0.225458 0.187413 0.144754 
0.0985294 0.0498789 0 0 0.0363684 0.0718413 0.105545 0.13665 0.164389 
0.188081 0.207141 0.221101 0.229617 0.232479 0.229617 
0.221101 0.207141 0.188081 0.164389 0.13665 0.105545 
0.0718413 0.0363684 0 0 0.0237573 0.0469295 0.0689461 0.0892649 0.107386 
0.122862 0.135313 0.144432 0.149995 0.151865 0.149995 
0.144432 0.135313 0.122862 0.107386 0.0892649 0.0689461 
0.0469295 0.0237573 0 0 0.0117336 0.0231782 0.0340521 0.0440874 0.0530371 
0.0606808 0.0668304 0.0713343 0.0740818 0.0750053 0.0740818 
0.0713343 0.0668304 0.0606808 0.0530371 0.0440874 0.0340521 
0.0231782 0.0117336 0 0 0 0 0 0 0 
0 0 0 0 0 0 
0 0 0 0 0 0 
0 0 0 