# vtk DataFile Version 2.0 
Lid_driven streamfuntion-vorticity 
ASCII 
DATASET RECTILINEAR_GRID 
DIMENSIONS 21 41 1
X_COORDINATES 21 float 
0 
0.05 0.1 0.15 0.2 0.25 0.3 
0.35 0.4 0.45 0.5 0.55 0.6 
0.65 0.7 0.75 0.8 0.85 0.9 
0.95 1 
Y_COORDINATES 41 float 
0 
0.05 0.1 0.15 0.2 0.25 0.3 
0.35 0.4 0.45 0.5 0.55 0.6 
0.65 0.7 0.75 0.8 0.85 0.9 
0.95 1 1.05 1.1 1.15 1.2 
1.25 1.3 1.35 1.4 1.45 1.5 
1.55 1.6 1.65 1.7 1.75 1.8 
1.85 1.9 1.95 2 
Z_COORDINATES 1 float 
0 
POINT_DATA 861
SCALARS Temperature float
LOOKUP_TABLE default 
100 100 100 100 100 100 
100 100 100 100 100 100 
100 100 100 100 100 100 
100 100 100 0 51.3508 70.3414 78.8784 83.3322 86.0326 
87.735 88.8268 89.5116 89.8919 90.0148 89.8919 
89.5116 88.8268 87.735 86.0326 83.3322 78.8784 
70.3414 51.3507 0 0 27.8779 49.3234 61.0788 68.3602 72.9997 
76.0506 78.0636 79.343 80.0548 80.2835 80.0548 
79.343 78.0636 76.0506 72.9997 68.3602 61.0788 
49.3234 27.8779 0 0 20.8038 36.4942 47.7874 55.8684 61.4774 
65.3589 68.0031 69.7162 70.6803 70.9917 70.6803 
69.7162 68.0031 65.3589 61.4774 55.8684 47.7874 
36.4942 20.8038 0 0 14.4081 27.5847 37.9161 45.8058 51.6456 
55.8798 58.8583 60.8288 61.9519 62.3168 61.9519 
60.8288 58.8583 55.8798 51.6456 45.8058 37.9161 
27.5847 14.4081 0 0 11.2327 21.7306 30.6003 37.8015 43.4124 
47.645 50.7102 52.7794 53.9737 54.364 53.9737 
52.7794 50.7102 47.645 43.4124 37.8015 30.6003 
21.7306 11.2327 0 0 8.99821 17.5394 25.0546 31.4156 36.5662 
40.577 43.554 45.5997 46.7941 47.1867 46.7941 
45.5997 43.554 40.577 36.5662 31.4156 25.0546 
17.5394 8.99821 0 0 7.30441 14.3768 20.7386 26.2704 30.8744 
34.5482 37.3297 39.2698 40.4137 40.7915 40.4137 
39.2698 37.3297 34.5482 30.8744 26.2704 20.7386 
14.3769 7.30441 0 0 6.03688 11.9271 17.3095 22.0793 26.1287 
29.4198 31.9507 33.7373 34.7992 35.1514 34.7992 
33.7373 31.9507 29.4198 26.1287 22.0793 17.3095 
11.9271 6.03688 0 0 5.04158 9.97448 14.5352 18.6299 22.1559 
25.061 27.3217 28.9326 29.8963 30.217 29.8963 
28.9326 27.3217 25.061 22.1559 18.6299 14.5352 
9.97449 5.04158 0 0 4.23559 8.38876 12.2591 15.7656 18.8162 
21.355 23.3485 24.7792 25.6394 25.9264 25.6394 
24.7792 23.3485 21.355 18.8162 15.7656 12.2591 
8.38877 4.23559 0 0 3.56846 7.08299 10.3717 13.3705 15.9986 
18.202 19.9437 21.2006 21.9593 22.2129 21.9593 
21.2006 19.9437 18.202 15.9986 13.3705 10.3717 
7.083 3.56846 0 0 3.01736 5.9975 8.79473 11.3571 13.6148 
15.5178 17.0296 18.125 18.7881 19.0101 18.7881 
18.125 17.0296 15.5178 13.6148 11.3571 8.79474 
5.99751 3.01736 0 0 2.56132 5.08883 7.46964 9.65786 11.5933 
13.2313 14.5372 15.4863 16.0622 16.2552 16.0622 
15.4863 14.5372 13.2313 11.5933 9.65786 7.46964 
5.08883 2.56132 0 0 2.17655 4.32363 6.35108 8.21904 9.87593 
11.2822 12.4064 13.2254 13.723 13.89 13.723 
13.2254 12.4064 11.2822 9.87593 8.21904 6.35109 
4.32363 2.17656 0 0 1.84823 3.67651 5.40369 6.99781 8.41472 
9.61986 10.5852 11.2897 11.7183 11.8621 11.7183 
11.2897 10.5852 9.61987 8.41473 6.99782 5.40369 
3.67651 1.84823 0 0 1.57088 3.12803 4.59961 5.95966 7.17035 
8.20172 9.02912 9.63361 10.0017 10.1253 10.0017 
9.63361 9.02913 8.20172 7.17035 5.95967 4.59962 
3.12804 1.57089 0 0 1.3378 2.66238 3.91614 5.07611 6.1099 
6.9916 7.6997 8.2175 8.53305 8.63906 8.53305 
8.2175 7.6997 6.99161 6.10991 5.07612 3.91614 
2.66239 1.33781 0 0 1.13903 2.26616 3.33424 4.32327 5.20551 
5.95862 6.56393 7.00686 7.27694 7.3677 7.27694 
7.00687 6.56393 5.95863 5.20551 4.32328 3.33424 
2.26617 1.13904 0 0 0.967782 1.92845 2.83819 3.68123 4.43374 
5.07654 5.59352 5.97201 6.20288 6.28048 6.20288 
5.97202 5.59352 5.07655 4.43374 3.68124 2.8382 
1.92846 0.967788 0 0 0.822052 1.64056 2.41516 3.13345 3.77496 
4.32324 4.76442 5.08755 5.2847 5.35098 5.28471 
5.08756 4.76443 4.32325 3.77497 3.13346 2.41517 
1.64057 0.822059 0 0 0.699247 1.3951 2.05426 2.66594 3.21251 
3.67986 4.05605 4.33167 4.49988 4.55644 4.49989 
4.33167 4.05605 3.67987 3.21252 2.66595 2.05427 
1.39511 0.699254 0 0 0.594235 1.18551 1.74608 2.26665 2.73203 
3.13012 3.45065 3.68555 3.82895 3.87718 3.82896 
3.68555 3.45065 3.13013 2.73204 2.26666 1.74609 
1.18552 0.594241 0 0 0.503115 1.00631 1.48266 1.92539 2.32134 
2.66017 2.93306 3.1331 3.25523 3.29631 3.25524 
3.1331 2.93306 2.66017 2.32135 1.9254 1.48267 
1.00631 0.50312 0 0 0.425233 0.853119 1.25747 1.63364 1.97021 
2.25832 2.49044 2.66062 2.76455 2.7995 2.76455 
2.66063 2.49044 2.25832 1.97021 1.63365 1.25748 
0.853124 0.425239 0 0 0.359803 0.7222 1.06492 1.38413 1.66988 
1.9146 2.1118 2.25642 2.34475 2.37447 2.34475 
2.25642 2.1118 1.9146 1.66989 1.38413 1.06493 
0.722205 0.359808 0 0 0.303778 0.610099 0.900059 1.17051 1.41277 
1.62033 1.78763 1.91035 1.98534 2.01057 1.98534 
1.91035 1.78763 1.62033 1.41277 1.17051 0.900063 
0.610102 0.303782 0 0 0.254508 0.513877 0.758659 0.987367 1.19237 
1.3681 1.5098 1.61377 1.67731 1.6987 1.67731 
1.61378 1.50981 1.3681 1.19237 0.98737 0.758663 
0.513881 0.254512 0 0 0.21209 0.431276 0.637298 0.830211 1.00327 
1.15171 1.27146 1.35936 1.41308 1.43116 1.41308 
1.35936 1.27146 1.15171 1.00327 0.830214 0.637301 
0.43128 0.212093 0 0 0.176744 0.360363 0.533045 0.695202 0.840836 
0.96585 1.06675 1.14083 1.18614 1.20139 1.18614 
1.14083 1.06675 0.965853 0.840839 0.695204 0.533048 
0.360366 0.176748 0 0 0.146367 0.299249 0.443224 0.578923 0.700975 
0.805851 0.890536 0.952746 0.990818 1.00365 0.990819 
0.952748 0.890538 0.805853 0.700977 0.578925 0.443226 
0.299252 0.14637 0 0 0.118801 0.246298 0.365527 0.478442 0.580172 
0.667696 0.738431 0.790423 0.822254 0.832982 0.822255 
0.790424 0.738433 0.667698 0.580175 0.478444 0.365529 
0.246301 0.118804 0 0 0.0946298 0.200345 0.298155 0.391378 0.475553 
0.548086 0.60677 0.649935 0.676375 0.685288 0.676376 
0.649936 0.606771 0.548088 0.475555 0.39138 0.298157 
0.200348 0.0946331 0 0 0.07479 0.160438 0.239601 0.315727 0.384681 
0.44422 0.492437 0.527933 0.549705 0.557052 0.549705 
0.527934 0.492438 0.444222 0.384683 0.315729 0.239604 
0.160441 0.0747934 0 0 0.0575525 0.125539 0.18843 0.249666 0.305365 
0.353585 0.39267 0.421473 0.439172 0.445157 0.439173 
0.421473 0.392671 0.353586 0.305367 0.249668 0.188433 
0.125542 0.0575561 0 0 0.0409019 0.0947964 0.143438 0.191662 0.235746 
0.274026 0.305102 0.328027 0.342135 0.34691 0.342135 
0.328028 0.305103 0.274027 0.235748 0.191665 0.143441 
0.0947998 0.0409056 0 0 0.0258894 0.0677995 0.10386 0.140619 0.174433 
0.203899 0.227853 0.245541 0.256448 0.260147 0.256449 
0.245542 0.227854 0.2039 0.174435 0.140621 0.103863 
0.0678029 0.0258932 0 0 0.0128442 0.0441333 0.0691338 0.0956856 0.120296 
0.141824 0.159319 0.172247 0.180257 0.182989 0.180258 
0.172247 0.15932 0.141826 0.120298 0.095688 0.0691367 
0.0441366 0.0128479 0 0 0.0101182 0.0280968 0.0412701 0.0585015 0.074544 
0.0886624 0.100111 0.108568 0.11387 0.1157 0.11387 
0.108568 0.100112 0.0886638 0.0745458 0.0585037 0.0412728 
0.0280999 0.0101218 0 0 -0.00558004 0.00911356 0.0100053 0.0192793 0.0284772 
0.0365582 0.0415313 0.0450233 0.0485751 0.0503461 0.0485754 
0.0450238 0.0415321 0.0365593 0.0284787 0.0192812 0.0100077 
0.00911647 -0.00557669 0 0 0 0 0 0 0 
0 0 0 0 0 0 
0 0 0 0 0 0 
0 0 0 