# vtk DataFile Version 2.0 
Lid_driven streamfuntion-vorticity 
ASCII 
DATASET RECTILINEAR_GRID 
DIMENSIONS 60 15 1
X_COORDINATES 60 float 
0 
0.508475 1.01695 1.52542 2.0339 2.54237 3.05085 
3.55932 4.0678 4.57627 5.08475 5.59322 6.10169 
6.61017 7.11864 7.62712 8.13559 8.64407 9.15254 
9.66102 10.1695 10.678 11.1864 11.6949 12.2034 
12.7119 13.2203 13.7288 14.2373 14.7458 15.2542 
15.7627 16.2712 16.7797 17.2881 17.7966 18.3051 
18.8136 19.322 19.8305 20.339 20.8475 21.3559 
21.8644 22.3729 22.8814 23.3898 23.8983 24.4068 
24.9153 25.4237 25.9322 26.4407 26.9492 27.4576 
27.9661 28.4746 28.9831 29.4915 30 
Y_COORDINATES 15 float 
0 
0.0714286 0.142857 0.214286 0.285714 0.357143 0.428571 
0.5 0.571429 0.642857 0.714286 0.785714 0.857143 
0.928571 1 
Z_COORDINATES 1 float 
0 

POINT_DATA 900
SCALARS Streamfunction float
LOOKUP_TABLE default 
0 0 0 0 0 0 
0 0 0 0 0 0 
0 0 0 0 0 0 
0 0 0 0 0 0 
0 0 0 0 0 0 
0 0 0 0 0 0 
0 0 0 0 0 0 
0 0 0 0 0 0 
0 0 0 0 0 0 
0 0 0 0 0 0 
0 -0.0034207 -0.00534774 -0.0056365 -0.00419815 -0.00151713 
0.00168323 0.00469837 0.00707073 0.00865406 0.00953243 0.00989357 
0.00993207 0.0098022 0.00960765 0.00940915 0.00923712 0.00910304 
0.00900776 0.00894688 0.00891396 0.00890226 0.00890562 0.00891879 
0.0089376 0.00895881 0.00898008 0.00899979 0.00901692 0.0090309 
0.00904151 0.00904879 0.00905294 0.00905427 0.00905313 0.0090499 
0.00904496 0.00903864 0.00903124 0.00902302 0.00901419 0.00900492 
0.00899534 0.00898553 0.00897554 0.00896536 0.00895494 0.00894413 
0.0089327 0.00892026 0.0089063 0.00889012 0.00887053 0.00884612 
0.00881227 0.00876327 0.00866796 0.00850257 0.00757891 0.00728863 
0 -0.00976845 -0.014764 -0.0145376 -0.00966259 -0.00171086 
0.00735363 0.0157465 0.0223397 0.0267774 0.0292771 0.0303277 
0.0304498 0.0300694 0.0294829 0.0288705 0.0283272 0.0278921 
0.0275719 0.0273564 0.027228 0.0271672 0.0271559 0.0271782 
0.0272211 0.0272746 0.0273312 0.0273854 0.0274339 0.0274745 
0.0275063 0.0275291 0.0275434 0.0275498 0.0275493 0.0275431 
0.0275321 0.0275174 0.0274998 0.0274801 0.0274591 0.0274373 
0.0274151 0.0273929 0.027371 0.0273494 0.0273283 0.0273074 
0.0272863 0.0272643 0.0272405 0.0272137 0.0271813 0.0271415 
0.027084 0.0270004 0.0268234 0.0264877 0.025156 0.0276968 
0 -0.0165235 -0.0235064 -0.0205805 -0.00994958 0.00529571 
0.021807 0.0367476 0.048409 0.0563007 0.0608159 0.0627721 
0.0630472 0.0623776 0.0612928 0.060128 0.059069 0.0581997 
0.0575416 0.0570819 0.0567914 0.0566358 0.0565811 0.0565974 
0.0566594 0.0567472 0.0568454 0.0569431 0.0570327 0.0571097 
0.0571716 0.0572175 0.0572479 0.0572638 0.0572668 0.0572589 
0.0572418 0.0572175 0.0571876 0.0571537 0.057117 0.0570786 
0.0570395 0.0570004 0.0569619 0.0569244 0.0568879 0.0568524 
0.0568172 0.0567814 0.0567433 0.0567015 0.056652 0.0565931 
0.0565087 0.056393 0.0561451 0.055717 0.0544747 0.0590379 
0 -0.0214389 -0.0269024 -0.0181929 0.000247999 0.0238119 
0.0479835 0.0692052 0.0855103 0.0964851 0.102775 0.105512 
0.105882 0.104888 0.103266 0.1015 0.0998657 0.098499 
0.0974418 0.0966828 0.0961838 0.095896 0.0957697 0.0957597 
0.0958272 0.0959409 0.0960767 0.0962167 0.0963484 0.096464 
0.0965589 0.0966312 0.0966808 0.0967091 0.0967183 0.0967107 
0.0966892 0.0966564 0.0966148 0.0965668 0.0965142 0.0964588 
0.0964019 0.0963449 0.0962885 0.0962334 0.09618 0.0961281 
0.0960771 0.0960257 0.0959718 0.0959136 0.0958463 0.0957688 
0.0956616 0.0955265 0.0952448 0.094845 0.093915 0.0991254 
0 -0.0219638 -0.0203689 -0.00270432 0.0248179 0.056577 
0.0873742 0.113436 0.13296 0.145868 0.153146 0.156205 
0.156452 0.155061 0.152903 0.150561 0.14838 0.146535 
0.145087 0.144027 0.143311 0.142879 0.142667 0.142616 
0.142675 0.142802 0.142964 0.143138 0.143304 0.143453 
0.143577 0.143673 0.143741 0.143782 0.143798 0.143793 
0.143769 0.14373 0.143679 0.143619 0.143553 0.143484 
0.143411 0.143339 0.143266 0.143196 0.143127 0.143061 
0.142995 0.14293 0.142862 0.142789 0.142707 0.142615 
0.142496 0.142357 0.142093 0.141796 0.141231 0.145773 
0 -0.0140727 0.000706261 0.0293077 0.065756 0.104221 
0.139457 0.168049 0.188762 0.202042 0.209246 0.212002 
0.211826 0.209956 0.207302 0.20448 0.201861 0.199637 
0.197878 0.196577 0.195684 0.19513 0.194841 0.194749 
0.194792 0.194921 0.195097 0.19529 0.195478 0.195649 
0.195793 0.195905 0.195986 0.196036 0.196058 0.196054 
0.196029 0.195986 0.19593 0.195863 0.195788 0.195709 
0.195626 0.195543 0.19546 0.195379 0.1953 0.195223 
0.195147 0.195072 0.194995 0.194913 0.194823 0.194723 
0.194606 0.194477 0.194281 0.194105 0.193882 0.196793 
0 0.00973763 0.0404869 0.079408 0.122693 0.164933 
0.201486 0.229822 0.249533 0.261632 0.267769 0.269667 
0.268836 0.266466 0.263423 0.260288 0.257413 0.254981 
0.253056 0.251627 0.250639 0.250018 0.249685 0.249566 
0.249595 0.24972 0.249897 0.250094 0.250289 0.250466 
0.250616 0.250735 0.25082 0.250873 0.250896 0.250893 
0.250868 0.250824 0.250766 0.250696 0.250619 0.250536 
0.25045 0.250362 0.250275 0.25019 0.250107 0.250027 
0.249948 0.249869 0.249789 0.249705 0.249614 0.249516 
0.249412 0.249305 0.249212 0.249149 0.249232 0.25 
0.0276968 0.0583283 0.100785 0.14633 0.192465 0.234421 
0.26872 0.294052 0.310869 0.320609 0.325028 0.325785 
0.324262 0.32151 0.318282 0.315074 0.312184 0.309763 
0.307857 0.306445 0.305471 0.304858 0.304528 0.304407 
0.304431 0.304547 0.304715 0.304902 0.305087 0.305255 
0.305397 0.305508 0.305588 0.305638 0.305659 0.305655 
0.30563 0.305587 0.305531 0.305464 0.305389 0.305309 
0.305227 0.305143 0.30506 0.304978 0.304899 0.304822 
0.304746 0.304672 0.304596 0.304516 0.304433 0.304344 
0.304264 0.304186 0.304203 0.304254 0.304626 0.303207 
0.0991254 0.133199 0.178755 0.225233 0.269081 0.306364 
0.335148 0.355357 0.368076 0.374889 0.377425 0.377115 
0.375105 0.372244 0.369127 0.366138 0.363502 0.361323 
0.359625 0.358378 0.357525 0.356994 0.356713 0.356614 
0.356641 0.356746 0.356895 0.357058 0.357219 0.357363 
0.357485 0.357579 0.357646 0.357686 0.357701 0.357695 
0.357671 0.357632 0.357581 0.357522 0.357455 0.357385 
0.357313 0.35724 0.357167 0.357096 0.357027 0.35696 
0.356895 0.356831 0.356766 0.356698 0.356629 0.356556 
0.356503 0.35646 0.356565 0.356736 0.357402 0.354227 
0.196793 0.225781 0.26655 0.307963 0.344471 0.373477 
0.394614 0.408689 0.417013 0.421003 0.421956 0.420957 
0.418849 0.416249 0.413577 0.411098 0.408958 0.407219 
0.405883 0.404916 0.404264 0.403866 0.403663 0.4036 
0.403632 0.403722 0.403842 0.403971 0.404096 0.404207 
0.404299 0.404369 0.404417 0.404445 0.404453 0.404446 
0.404424 0.404391 0.40435 0.404302 0.404249 0.404194 
0.404137 0.404079 0.404023 0.403968 0.403914 0.403863 
0.403813 0.403764 0.403715 0.403664 0.403613 0.403562 
0.403533 0.403524 0.403677 0.403956 0.40491 0.400875 
0.303207 0.322441 0.353116 0.384471 0.410071 0.429044 
0.442093 0.450308 0.45481 0.456616 0.456589 0.455424 
0.453654 0.451665 0.449712 0.447954 0.446469 0.445284 
0.444389 0.443752 0.443333 0.443084 0.442965 0.442937 
0.442969 0.443036 0.443121 0.44321 0.443293 0.443366 
0.443425 0.44347 0.443499 0.443514 0.443517 0.443509 
0.443492 0.443469 0.443439 0.443406 0.443369 0.443332 
0.443293 0.443255 0.443217 0.443181 0.443146 0.443113 
0.44308 0.443049 0.443018 0.442985 0.442955 0.442926 
0.442917 0.442932 0.443086 0.443411 0.444585 0.440962 
0.400875 0.408458 0.426498 0.445063 0.458929 0.468523 
0.474756 0.478449 0.48028 0.480798 0.480448 0.479579 
0.478458 0.477276 0.476159 0.475177 0.474366 0.47373 
0.473259 0.472931 0.472721 0.472601 0.472548 0.472542 
0.472565 0.472605 0.472653 0.472701 0.472745 0.472783 
0.472813 0.472835 0.472849 0.472855 0.472855 0.472849 
0.472839 0.472825 0.472809 0.472791 0.472771 0.472751 
0.472731 0.472712 0.472693 0.472674 0.472657 0.472641 
0.472626 0.472611 0.472597 0.472583 0.472571 0.472561 
0.472565 0.47259 0.472708 0.472971 0.474152 0.472303 
0.472303 0.469746 0.476149 0.482948 0.48758 0.490604 
0.492472 0.493514 0.493969 0.49402 0.493807 0.493444 
0.493014 0.492579 0.492178 0.491833 0.491553 0.491336 
0.491178 0.49107 0.491003 0.490965 0.490951 0.490951 
0.49096 0.490975 0.490991 0.491008 0.491022 0.491035 
0.491045 0.491051 0.491056 0.491058 0.491057 0.491055 
0.491052 0.491048 0.491042 0.491037 0.491031 0.491025 
0.49102 0.491014 0.49101 0.491005 0.491002 0.490999 
0.490996 0.490995 0.490994 0.490993 0.490994 0.490998 
0.491008 0.49103 0.491092 0.491217 0.491982 0.492711 
0.5 0.5 0.5 0.5 0.5 0.5 
0.5 0.5 0.5 0.5 0.5 0.5 
0.5 0.5 0.5 0.5 0.5 0.5 
0.5 0.5 0.5 0.5 0.5 0.5 
0.5 0.5 0.5 0.5 0.5 0.5 
0.5 0.5 0.5 0.5 0.5 0.5 
0.5 0.5 0.5 0.5 0.5 0.5 
0.5 0.5 0.5 0.5 0.5 0.5 
0.5 0.5 0.5 0.5 0.5 0.5 
0.5 0.5 0.5 0.5 0.5 0.5 
