# vtk DataFile Version 2.0 
Lid_driven streamfuntion-vorticity 
ASCII 
DATASET RECTILINEAR_GRID 
DIMENSIONS 60 15 1
X_COORDINATES 60 float 
0 
0.508475 1.01695 1.52542 2.0339 2.54237 3.05085 
3.55932 4.0678 4.57627 5.08475 5.59322 6.10169 
6.61017 7.11864 7.62712 8.13559 8.64407 9.15254 
9.66102 10.1695 10.678 11.1864 11.6949 12.2034 
12.7119 13.2203 13.7288 14.2373 14.7458 15.2542 
15.7627 16.2712 16.7797 17.2881 17.7966 18.3051 
18.8136 19.322 19.8305 20.339 20.8475 21.3559 
21.8644 22.3729 22.8814 23.3898 23.8983 24.4068 
24.9153 25.4237 25.9322 26.4407 26.9492 27.4576 
27.9661 28.4746 28.9831 29.4915 30 
Y_COORDINATES 15 float 
0 
0.0714286 0.142857 0.214286 0.285714 0.357143 0.428571 
0.5 0.571429 0.642857 0.714286 0.785714 0.857143 
0.928571 1 
Z_COORDINATES 1 float 
0 

POINT_DATA 900
SCALARS Vorticity float
LOOKUP_TABLE default 
0.883547 1.72451 2.74576 2.99435 2.34443 1.02171 
-0.599196 -2.14073 -3.35467 -4.16117 -4.60482 -4.78491 
-4.80299 -4.73829 -4.64307 -4.5473 -4.46553 -4.40294 
-4.35953 -4.33287 -4.31962 -4.31641 -4.32018 -4.32837 
-4.33897 -4.35043 -4.36165 -4.37187 -4.38064 -4.38771 
-4.39299 -4.39654 -4.39847 -4.39894 -4.39814 -4.39626 
-4.39349 -4.39 -4.38594 -4.38142 -4.37656 -4.37143 
-4.36607 -4.36054 -4.35483 -4.34894 -4.34281 -4.33636 
-4.32943 -4.3218 -4.31315 -4.30307 -4.29084 -4.27555 
-4.25459 -4.22431 -4.16689 -4.07012 -3.47651 -3 
0.04258 0.99294 1.37356 1.15147 0.474952 -0.443594 
-1.42167 -2.32255 -3.0576 -3.58692 -3.91529 -4.07859 
-4.12535 -4.10164 -4.04335 -3.97451 -3.90917 -3.8542 
-3.81193 -3.78208 -3.76308 -3.75286 -3.74933 -3.75054 
-3.75488 -3.76101 -3.76791 -3.77482 -3.78124 -3.78681 
-3.79135 -3.79478 -3.79711 -3.79838 -3.7987 -3.79816 
-3.7969 -3.79502 -3.79263 -3.78983 -3.78668 -3.78327 
-3.77964 -3.77583 -3.77186 -3.76774 -3.76346 -3.75898 
-3.75421 -3.74905 -3.74332 -3.73676 -3.7291 -3.71955 
-3.70766 -3.68944 -3.66249 -3.60078 -3.26649 -2.57143 
0.122577 0.206902 -0.158841 -0.781618 -1.40765 -1.9149 
-2.29492 -2.59116 -2.8411 -3.05382 -3.21989 -3.3301 
-3.38539 -3.3961 -3.3767 -3.34096 -3.29952 -3.25939 
-3.22448 -3.19646 -3.17555 -3.16114 -3.15224 -3.14773 
-3.14651 -3.14763 -3.15024 -3.1537 -3.15748 -3.16123 
-3.16468 -3.16765 -3.17006 -3.17186 -3.17306 -3.17367 
-3.17375 -3.17335 -3.17252 -3.17132 -3.16981 -3.16802 
-3.16601 -3.16379 -3.1614 -3.15885 -3.15614 -3.15328 
-3.15023 -3.14694 -3.14338 -3.13929 -3.13493 -3.12902 
-3.12377 -3.11209 -3.1072 -3.06959 -2.98323 -2.14286 
0.210179 -0.598361 -1.64387 -2.47253 -2.95401 -3.10119 
-3.02254 -2.85507 -2.7043 -2.6181 -2.59521 -2.61025 
-2.6363 -2.65595 -2.66245 -2.65628 -2.64118 -2.62145 
-2.60065 -2.58119 -2.56445 -2.55098 -2.54082 -2.53369 
-2.52915 -2.52672 -2.5259 -2.52627 -2.52745 -2.52914 
-2.53108 -2.53309 -2.53503 -2.5368 -2.53833 -2.53958 
-2.54053 -2.54119 -2.54156 -2.54166 -2.54149 -2.54109 
-2.54047 -2.53965 -2.53865 -2.53747 -2.53613 -2.53465 
-2.53303 -2.53122 -2.52935 -2.52703 -2.52513 -2.52131 
-2.52118 -2.51099 -2.52411 -2.48113 -2.57204 -1.71429 
0.279659 -1.49857 -3.04549 -3.83316 -4.04572 -3.83499 
-3.38888 -2.88901 -2.45992 -2.15654 -1.97988 -1.90121 
-1.88345 -1.89486 -1.9144 -1.93109 -1.94102 -1.94417 
-1.94212 -1.9368 -1.92985 -1.9225 -1.91555 -1.90945 
-1.90443 -1.90054 -1.89774 -1.89594 -1.895 -1.89477 
-1.89511 -1.89589 -1.89696 -1.89823 -1.8996 -1.901 
-1.90235 -1.90361 -1.90475 -1.90575 -1.90658 -1.90723 
-1.90771 -1.90802 -1.90814 -1.9081 -1.90789 -1.90753 
-1.90705 -1.90639 -1.90578 -1.9047 -1.90453 -1.90184 
-1.90531 -1.89393 -1.92076 -1.85718 -2.03629 -1.28571 
0.300417 -2.79108 -4.39602 -4.80761 -4.58416 -3.96937 
-3.20438 -2.4849 -1.91426 -1.51716 -1.27526 -1.15327 
-1.11277 -1.11993 -1.14933 -1.18456 -1.21672 -1.24211 
-1.26003 -1.27127 -1.27719 -1.2792 -1.27853 -1.27623 
-1.27308 -1.26966 -1.2664 -1.26355 -1.26127 -1.25963 
-1.25863 -1.25824 -1.25838 -1.25898 -1.25993 -1.26114 
-1.26254 -1.26404 -1.26559 -1.26711 -1.26858 -1.26995 
-1.2712 -1.27231 -1.27327 -1.27407 -1.27471 -1.2752 
-1.27556 -1.27576 -1.27601 -1.27583 -1.27663 -1.2749 
-1.27979 -1.26867 -1.29932 -1.23009 -1.40611 -0.857143 
0.219091 -5.01822 -5.58241 -5.24974 -4.44831 -3.41046 
-2.39588 -1.57648 -0.999498 -0.634811 -0.429722 -0.336125 
-0.316104 -0.340482 -0.387389 -0.441553 -0.493458 -0.538081 
-0.573513 -0.599745 -0.617778 -0.629045 -0.635066 -0.637258 
-0.636852 -0.634855 -0.632053 -0.629026 -0.626181 -0.623778 
-0.621961 -0.620785 -0.620245 -0.620291 -0.620847 -0.621824 
-0.623131 -0.624677 -0.626379 -0.628165 -0.629972 -0.631749 
-0.633454 -0.635056 -0.636529 -0.637861 -0.639037 -0.640069 
-0.640957 -0.641727 -0.642452 -0.642976 -0.643988 -0.643613 
-0.647176 -0.640719 -0.660993 -0.616065 -0.720371 -0.428571 
-11.9942 -7.39137 -6.06227 -4.87163 -3.50526 -2.14745 
-1.037 -0.271016 0.185054 0.418098 0.51026 0.519305 
0.481056 0.417667 0.343795 0.269507 0.201388 0.143153 
0.0962731 0.0606322 0.0351344 0.0181838 0.00802609 0.00296922 
0.00150923 0.00238857 0.0046094 0.00741916 0.010281 0.0128378 
0.0148757 0.0162898 0.0170546 0.0171994 0.0167886 0.0159059 
0.0146435 0.0130936 0.0113432 0.00947006 0.0075424 0.00561632 
0.00373961 0.0019466 0.000269824 -0.00127973 -0.00267594 -0.00394654 
-0.00504912 -0.00610093 -0.00695673 -0.00797241 -0.00859882 -0.0098923 
-0.0100148 -0.0119877 -0.0108346 -0.0128108 -0.00976244 0 
-8.55297 -7.19761 -5.1685 -3.43388 -1.73088 -0.313827 
0.651845 1.19171 1.42394 1.47015 1.41952 1.32614 
1.21876 1.11144 1.0112 0.921865 0.845571 0.78315 
0.734336 0.698001 0.67245 0.655728 0.645859 0.641024 
0.639658 0.640487 0.642528 0.645056 0.647574 0.64976 
0.651431 0.652507 0.652977 0.65288 0.652285 0.651273 
0.649933 0.64835 0.646605 0.644767 0.642897 0.641045 
0.639251 0.637546 0.635957 0.63449 0.633172 0.631962 
0.630931 0.629885 0.629161 0.627942 0.627942 0.625305 
0.628881 0.618761 0.642063 0.592225 0.705298 0.428571 
-5.10596 -4.53029 -2.87924 -1.00642 0.653199 1.76725 
2.3349 2.51586 2.47678 2.33535 2.16047 1.98759 
1.83228 1.69955 1.58955 1.50062 1.43065 1.37736 
1.33837 1.31127 1.29362 1.28319 1.27796 1.27625 
1.27673 1.2784 1.28053 1.28265 1.28444 1.28576 
1.28654 1.28678 1.28652 1.28584 1.28482 1.28353 
1.28205 1.28046 1.27881 1.27715 1.27553 1.27398 
1.27252 1.27116 1.26993 1.26881 1.26783 1.26694 
1.26621 1.26543 1.265 1.26392 1.26443 1.26142 
1.26708 1.25331 1.28872 1.21273 1.40505 0.857143 
-1.6525 -1.22098 0.26264 2.00249 3.16345 3.63705 
3.65277 3.44572 3.16685 2.8913 2.64913 2.44896 
2.2902 2.16845 2.07792 2.01276 1.96766 1.93803 
1.91999 1.9103 1.90632 1.90596 1.90763 1.91022 
1.91294 1.91536 1.91721 1.9184 1.91895 1.91891 
1.91838 1.91747 1.91628 1.9149 1.91342 1.9119 
1.9104 1.90896 1.9076 1.90634 1.90521 1.9042 
1.90331 1.90254 1.90189 1.90135 1.90091 1.90052 
1.90025 1.8999 1.89982 1.89917 1.89992 1.89756 
1.90308 1.89113 1.92458 1.85415 2.06022 1.28571 
1.80541 2.1821 3.79855 4.97004 5.19134 4.86611 
4.35577 3.85448 3.43795 3.11922 2.88662 2.72316 
2.61336 2.54429 2.50526 2.48748 2.48388 2.48896 
2.49863 2.50998 2.52109 2.53082 2.53859 2.54426 
2.54793 2.54986 2.55039 2.54985 2.54857 2.54681 
2.54479 2.5427 2.54067 2.53877 2.53707 2.5356 
2.53436 2.53337 2.5326 2.53203 2.53164 2.53142 
2.53132 2.53133 2.53143 2.53158 2.53177 2.53197 
2.53219 2.53232 2.53258 2.53244 2.53318 2.53192 
2.53572 2.52818 2.54963 2.50444 2.63292 1.71429 
5.25445 5.90601 7.30703 7.17748 6.25295 5.24748 
4.40471 3.78144 3.35902 3.09505 2.94643 2.87769 
2.86207 2.87988 2.91673 2.96223 3.00914 3.05278 
3.09042 3.12088 3.14402 3.16039 3.17096 3.17682 
3.1791 3.1788 3.17679 3.17377 3.17028 3.16671 
3.16335 3.16037 3.15786 3.15586 3.15438 3.15339 
3.15283 3.15265 3.1528 3.15319 3.15379 3.15452 
3.15536 3.15623 3.15712 3.15798 3.15877 3.15948 
3.16011 3.16059 3.16105 3.16125 3.16175 3.16116 
3.16246 3.15758 3.16314 3.13381 3.09428 2.14286 
8.6527 10.2665 10.0483 8.08401 6.24775 4.89069 
3.96858 3.39279 3.07513 2.94053 2.92885 2.99366 
3.10032 3.224 3.34787 3.46137 3.55873 3.63766 
3.69828 3.74222 3.77191 3.79011 3.79952 3.80256 
3.80129 3.79736 3.79203 3.78621 3.78055 3.77545 
3.77116 3.76778 3.76533 3.76375 3.76298 3.7629 
3.76339 3.76434 3.76563 3.76717 3.76885 3.77061 
3.77237 3.77407 3.77565 3.77707 3.7783 3.7793 
3.78008 3.78062 3.78097 3.78104 3.78086 3.77981 
3.77777 3.77096 3.75815 3.71675 3.44947 2.57143 
12 14.748 11.4962 7.9848 5.71251 4.28172 
3.42772 2.9728 2.79518 2.80637 2.93854 3.1385 
3.36557 3.59078 3.79563 3.97019 4.11085 4.21835 
4.29603 4.3486 4.38113 4.3985 4.40503 4.40426 
4.39903 4.39146 4.38305 4.37485 4.36751 4.36139 
4.35665 4.35331 4.35128 4.35042 4.35057 4.35154 
4.35315 4.35522 4.35761 4.36018 4.3628 4.36537 
4.3678 4.37001 4.37195 4.37354 4.37475 4.37555 
4.37592 4.37588 4.37535 4.37428 4.37223 4.36865 
4.3611 4.34664 4.30903 4.23694 3.75305 3 
