# vtk DataFile Version 2.0 
Lid_driven streamfuntion-vorticity 
ASCII 
DATASET RECTILINEAR_GRID 
DIMENSIONS 60 15 1
X_COORDINATES 60 float 
0 
0.508475 1.01695 1.52542 2.0339 2.54237 3.05085 
3.55932 4.0678 4.57627 5.08475 5.59322 6.10169 
6.61017 7.11864 7.62712 8.13559 8.64407 9.15254 
9.66102 10.1695 10.678 11.1864 11.6949 12.2034 
12.7119 13.2203 13.7288 14.2373 14.7458 15.2542 
15.7627 16.2712 16.7797 17.2881 17.7966 18.3051 
18.8136 19.322 19.8305 20.339 20.8475 21.3559 
21.8644 22.3729 22.8814 23.3898 23.8983 24.4068 
24.9153 25.4237 25.9322 26.4407 26.9492 27.4576 
27.9661 28.4746 28.9831 29.4915 30 
Y_COORDINATES 15 float 
0 
0.0714286 0.142857 0.214286 0.285714 0.357143 0.428571 
0.5 0.571429 0.642857 0.714286 0.785714 0.857143 
0.928571 1 
Z_COORDINATES 1 float 
0 

POINT_DATA 900
SCALARS Streamfunction float
LOOKUP_TABLE default 
0 0 0 0 0 0 
0 0 0 0 0 0 
0 0 0 0 0 0 
0 0 0 0 0 0 
0 0 0 0 0 0 
0 0 0 0 0 0 
0 0 0 0 0 0 
0 0 0 0 0 0 
0 0 0 0 0 0 
0 0 0 0 0 0 
0 -0.00191762 -0.00314017 -0.00459347 -0.00599321 -0.0072923 
-0.00842533 -0.00928168 -0.0096936 -0.00944862 -0.00834413 -0.0062785 
-0.0033396 0.000168173 0.00379277 0.00707225 0.00966785 0.0114296 
0.0123823 0.012665 0.0124622 0.0119538 0.0112889 0.010577 
0.00989154 0.00927633 0.0087537 0.00833136 0.00800746 0.00777461 
0.00762216 0.00753828 0.00751056 0.00752733 0.00757734 0.00765106 
0.0077395 0.00783608 0.00793421 0.0080305 0.00812024 0.00820313 
0.00827529 0.00833949 0.00839104 0.00843633 0.00846762 0.0084965 
0.00850875 0.0085247 0.00851775 0.00852401 0.00849327 0.00849089 
0.00841884 0.0083962 0.00821184 0.0080608 0.00692908 0.00728863 
0 -0.00593942 -0.0101499 -0.0141519 -0.0176977 -0.0206919 
-0.0229642 -0.0242259 -0.024077 -0.0220704 -0.0178601 -0.0113915 
-0.00304085 0.00639081 0.0158579 0.0243476 0.0311239 0.0358445 
0.0385371 0.0394884 0.0391116 0.0378381 0.0360493 0.0340469 
0.0320481 0.0301952 0.0285708 0.0272135 0.0261308 0.0253107 
0.0247286 0.024354 0.0241532 0.0240934 0.0241423 0.0242719 
0.0244558 0.0246743 0.0249075 0.0251447 0.0253713 0.0255856 
0.0257753 0.0259478 0.0260886 0.0262159 0.0263065 0.0263939 
0.0264365 0.0264937 0.0264882 0.026526 0.0264625 0.0264897 
0.0263296 0.0263339 0.0259298 0.0257281 0.0240313 0.0276968 
0 -0.0113156 -0.0193398 -0.025833 -0.030942 -0.034606 
-0.0365653 -0.0363873 -0.0335241 -0.0274478 -0.0178742 -0.00500327 
0.0103482 0.026824 0.0428254 0.0569044 0.0680704 0.0759021 
0.0804809 0.0822325 0.0817583 0.0797002 0.0766512 0.0731081 
0.0694531 0.0659583 0.0627987 0.060072 0.0578168 0.0560308 
0.0546835 0.0537288 0.0531107 0.0527724 0.0526561 0.0527112 
0.0528881 0.0531497 0.0534581 0.0537919 0.0541226 0.0544453 
0.0547356 0.0550054 0.0552264 0.0554305 0.0555738 0.0557173 
0.0557831 0.0558801 0.0558666 0.0559361 0.0558273 0.0558877 
0.0556268 0.0556749 0.055065 0.0549544 0.0533396 0.0590379 
0 -0.0171854 -0.0281532 -0.0355917 -0.0403849 -0.042601 
-0.0419612 -0.037996 -0.030155 -0.017997 -0.00146076 0.0188766 
0.0416944 0.0650971 0.0870414 0.105826 0.120413 0.130481 
0.13628 0.138415 0.137647 0.134759 0.130479 0.125431 
0.120119 0.114922 0.110108 0.105841 0.102205 0.0992237 
0.0968724 0.0950998 0.0938352 0.0930025 0.0925213 0.092319 
0.0923241 0.0924814 0.0927344 0.0930498 0.0933846 0.0937285 
0.0940448 0.0943471 0.094594 0.0948272 0.0949848 0.0951486 
0.0952114 0.0953206 0.0952833 0.0953607 0.095203 0.0952738 
0.0949328 0.0950025 0.0942883 0.0942918 0.0931076 0.0991254 
0 -0.0221025 -0.0330658 -0.0386646 -0.0405393 -0.0388413 
-0.033324 -0.0235645 -0.00910448 0.0103114 0.0344241 0.0621967 
0.0917827 0.120839 0.147086 0.16883 0.185213 0.196163 
0.202167 0.204013 0.202592 0.198775 0.193347 0.186985 
0.180246 0.173568 0.167275 0.161584 0.156622 0.152441 
0.149033 0.146351 0.144321 0.142856 0.141861 0.141248 
0.14093 0.140834 0.140891 0.141055 0.141273 0.141526 
0.141771 0.142015 0.142213 0.142403 0.142522 0.142649 
0.142675 0.142748 0.142674 0.142712 0.142518 0.142546 
0.14218 0.142203 0.141534 0.141544 0.140844 0.145773 
0 -0.0228572 -0.0288539 -0.0294217 -0.0258931 -0.0182695 
-0.00631379 0.0103425 0.0320309 0.0587433 0.0897927 0.123615 
0.157903 0.190109 0.218058 0.240386 0.256627 0.267033 
0.272303 0.273336 0.271063 0.266363 0.260013 0.252683 
0.244928 0.237196 0.22983 0.223073 0.217078 0.21192 
0.207611 0.204114 0.201361 0.199262 0.197721 0.196638 
0.19592 0.195485 0.195255 0.195175 0.195188 0.195262 
0.195357 0.195466 0.195554 0.195636 0.195672 0.195706 
0.195672 0.195657 0.195545 0.195492 0.195289 0.195211 
0.194888 0.194789 0.194295 0.194198 0.193857 0.196793 
0 -0.010646 -0.00764561 -0.00131551 0.00882873 0.0230819 
0.0417219 0.0650689 0.0932468 0.12584 0.161621 0.19855 
0.234133 0.266026 0.292556 0.312947 0.327213 0.335903 
0.339821 0.339851 0.336848 0.331593 0.324786 0.317032 
0.308847 0.300654 0.292787 0.285493 0.278935 0.273205 
0.268328 0.264281 0.261008 0.258424 0.256437 0.254949 
0.253868 0.253105 0.252587 0.252247 0.252034 0.251902 
0.251822 0.251765 0.251718 0.251664 0.2516 0.251516 
0.251415 0.251288 0.251146 0.250974 0.250789 0.250572 
0.250345 0.250085 0.249836 0.249585 0.24948 0.25 
0.0276968 0.0290295 0.0388633 0.050938 0.0667172 0.0865178 
0.110552 0.138909 0.171271 0.206661 0.243374 0.279213 
0.311976 0.339961 0.362258 0.378728 0.389782 0.396115 
0.398498 0.397675 0.394325 0.38906 0.382434 0.374944 
0.367032 0.359073 0.351375 0.344172 0.337628 0.33184 
0.326846 0.322637 0.319168 0.316368 0.314157 0.312442 
0.311139 0.310162 0.309443 0.308912 0.308526 0.308231 
0.308008 0.307813 0.307654 0.307482 0.307336 0.307148 
0.306996 0.306771 0.306614 0.306338 0.306188 0.305848 
0.305736 0.305333 0.305347 0.304956 0.305086 0.303207 
0.0991254 0.101255 0.112237 0.126812 0.145737 0.168816 
0.195753 0.226035 0.258742 0.292466 0.325432 0.355822 
0.382169 0.403627 0.420015 0.431654 0.439131 0.443099 
0.444168 0.442871 0.439665 0.434965 0.429156 0.422604 
0.415653 0.408613 0.401748 0.39527 0.389332 0.384031 
0.379413 0.375481 0.372204 0.369526 0.367379 0.365684 
0.364368 0.363353 0.362581 0.361985 0.36153 0.361162 
0.360871 0.360606 0.360389 0.360155 0.359966 0.359724 
0.359549 0.359277 0.359121 0.358797 0.358683 0.358285 
0.358271 0.357797 0.358039 0.357579 0.35807 0.354227 
0.196793 0.195841 0.203891 0.218449 0.238306 0.26201 
0.288376 0.31631 0.34463 0.372038 0.397245 0.419199 
0.437279 0.45135 0.461674 0.468732 0.473059 0.475135 
0.475351 0.474014 0.471382 0.467688 0.463163 0.458047 
0.452582 0.446998 0.441508 0.436285 0.431465 0.427134 
0.423342 0.420096 0.417378 0.415145 0.413347 0.411917 
0.410798 0.409926 0.409253 0.408725 0.408312 0.40797 
0.407693 0.407436 0.407222 0.406992 0.406807 0.406573 
0.406407 0.406149 0.406011 0.40571 0.405626 0.405257 
0.405297 0.404856 0.40523 0.404827 0.405819 0.400875 
0.303207 0.296921 0.300722 0.314586 0.33335 0.354206 
0.375678 0.396806 0.416798 0.43494 0.450664 0.463637 
0.473818 0.481411 0.486776 0.490311 0.492369 0.493221 
0.493059 0.49202 0.490208 0.487729 0.484697 0.481246 
0.477525 0.473691 0.46989 0.466252 0.462879 0.45984 
0.457175 0.454894 0.452987 0.451423 0.450165 0.449168 
0.448388 0.447779 0.447308 0.446935 0.446641 0.446392 
0.446188 0.445995 0.445832 0.445657 0.445513 0.445335 
0.445206 0.445012 0.444907 0.444684 0.444626 0.444355 
0.444407 0.444089 0.444462 0.444245 0.445694 0.440962 
0.400875 0.389013 0.39078 0.402843 0.416945 0.430866 
0.443924 0.455819 0.466343 0.475332 0.482703 0.488486 
0.492822 0.495927 0.498042 0.499384 0.500119 0.500355 
0.500157 0.499561 0.49859 0.497276 0.49566 0.493804 
0.491782 0.489679 0.487582 0.485566 0.483694 0.482008 
0.480534 0.479278 0.478234 0.477384 0.476706 0.476171 
0.475756 0.475434 0.475184 0.474986 0.474829 0.474694 
0.474582 0.474474 0.474381 0.474281 0.474197 0.474095 
0.47402 0.473909 0.473849 0.473724 0.473692 0.473545 
0.473585 0.47342 0.473686 0.473665 0.47521 0.472303 
0.472303 0.459314 0.461141 0.46767 0.473851 0.479287 
0.483982 0.487986 0.491332 0.494045 0.496165 0.497756 
0.498901 0.499691 0.500213 0.500533 0.500699 0.500734 
0.500649 0.500444 0.50012 0.499679 0.49913 0.498491 
0.497788 0.49705 0.49631 0.495596 0.494934 0.494339 
0.493821 0.493383 0.493021 0.492729 0.492498 0.492317 
0.492178 0.492071 0.491988 0.491922 0.491869 0.491824 
0.491785 0.491748 0.491716 0.491681 0.491652 0.491616 
0.491591 0.491553 0.491534 0.491493 0.491486 0.49144 
0.491463 0.491418 0.49154 0.491586 0.492573 0.492711 
0.5 0.5 0.5 0.5 0.5 0.5 
0.5 0.5 0.5 0.5 0.5 0.5 
0.5 0.5 0.5 0.5 0.5 0.5 
0.5 0.5 0.5 0.5 0.5 0.5 
0.5 0.5 0.5 0.5 0.5 0.5 
0.5 0.5 0.5 0.5 0.5 0.5 
0.5 0.5 0.5 0.5 0.5 0.5 
0.5 0.5 0.5 0.5 0.5 0.5 
0.5 0.5 0.5 0.5 0.5 0.5 
0.5 0.5 0.5 0.5 0.5 0.5 
