# vtk DataFile Version 2.0 
Lid_driven streamfuntion-vorticity 
ASCII 
DATASET RECTILINEAR_GRID 
DIMENSIONS 60 15 1
X_COORDINATES 60 float 
0 
0.508475 1.01695 1.52542 2.0339 2.54237 3.05085 
3.55932 4.0678 4.57627 5.08475 5.59322 6.10169 
6.61017 7.11864 7.62712 8.13559 8.64407 9.15254 
9.66102 10.1695 10.678 11.1864 11.6949 12.2034 
12.7119 13.2203 13.7288 14.2373 14.7458 15.2542 
15.7627 16.2712 16.7797 17.2881 17.7966 18.3051 
18.8136 19.322 19.8305 20.339 20.8475 21.3559 
21.8644 22.3729 22.8814 23.3898 23.8983 24.4068 
24.9153 25.4237 25.9322 26.4407 26.9492 27.4576 
27.9661 28.4746 28.9831 29.4915 30 
Y_COORDINATES 15 float 
0 
0.0714286 0.142857 0.214286 0.285714 0.357143 0.428571 
0.5 0.571429 0.642857 0.714286 0.785714 0.857143 
0.928571 1 
Z_COORDINATES 1 float 
0 

POINT_DATA 900
SCALARS Vorticity float
LOOKUP_TABLE default 
0.343973 0.670201 0.928532 1.41492 1.93977 2.49978 
3.1012 3.74689 4.42672 5.10266 5.69348 6.06858 
6.06483 5.5312 4.38828 2.67587 0.563586 -1.68676 
-3.79241 -5.52546 -6.75915 -7.47384 -7.72991 -7.6299 
-7.28467 -6.79319 -6.23292 -5.65974 -5.11013 -4.60662 
-4.1606 -3.77717 -3.45594 -3.19482 -2.9888 -2.83372 
-2.72317 -2.6531 -2.61671 -2.61096 -2.62861 -2.66814 
-2.72137 -2.78908 -2.86138 -2.94252 -3.0197 -3.10256 
-3.17316 -3.24957 -3.30474 -3.37008 -3.40232 -3.45488 
-3.45498 -3.49318 -3.43677 -3.42299 -2.82332 -3 
0.0177451 0.597902 0.893639 1.22727 1.53822 1.82161 
2.06836 2.26 2.36214 2.32612 2.09821 1.64197 
0.963553 0.121461 -0.792189 -1.68961 -2.51991 -3.27493 
-3.96931 -4.61098 -5.18554 -5.66023 -6.00122 -6.18865 
-6.22337 -6.12372 -5.919 -5.64158 -5.3223 -4.98679 
-4.65538 -4.34212 -4.05682 -3.80442 -3.58778 -3.40632 
-3.25938 -3.1435 -3.05689 -2.99466 -2.95536 -2.93317 
-2.92802 -2.93296 -2.95023 -2.97099 -3.00108 -3.02826 
-3.06398 -3.08991 -3.12655 -3.14473 -3.18017 -3.18405 
-3.21868 -3.1996 -3.23257 -3.17992 -3.02913 -2.57143 
0.0544801 0.566038 0.75298 0.85305 0.870259 0.808111 
0.646255 0.362149 -0.0703157 -0.663195 -1.39691 -2.20799 
-3.00042 -3.67954 -4.18569 -4.5035 -4.6516 -4.66751 
-4.60278 -4.51558 -4.46027 -4.46963 -4.54809 -4.67306 
-4.81006 -4.92388 -4.99074 -4.99797 -4.94643 -4.84277 
-4.70066 -4.53193 -4.35134 -4.16725 -3.99081 -3.82431 
-3.67553 -3.54098 -3.42745 -3.32637 -3.24645 -3.17377 
-3.12219 -3.07055 -3.04182 -3.00358 -2.99367 -2.96134 
-2.96849 -2.93405 -2.95965 -2.91309 -2.96327 -2.88969 
-2.9789 -2.85297 -3.01096 -2.78171 -3.11535 -2.14286 
0.105443 0.477589 0.405117 0.212596 -0.0755204 -0.44953 
-0.92267 -1.4977 -2.16665 -2.89655 -3.62691 -4.28246 
-4.80039 -5.14914 -5.32511 -5.33566 -5.1978 -4.94229 
-4.61651 -4.26951 -3.94637 -3.68092 -3.49929 -3.41151 
-3.41432 -3.48654 -3.602 -3.72909 -3.84575 -3.93212 
-3.98322 -3.99345 -3.97125 -3.9172 -3.8458 -3.75585 
-3.66399 -3.56259 -3.4708 -3.37196 -3.29122 -3.19999 
-3.13512 -3.05096 -3.00438 -2.92365 -2.89803 -2.81471 
-2.81491 -2.71983 -2.75482 -2.63341 -2.71964 -2.54715 
-2.71532 -2.4463 -2.75916 -2.29022 -2.90723 -1.71429 
0.16733 0.274144 -0.170727 -0.663384 -1.19176 -1.76002 
-2.36878 -3.00329 -3.63741 -4.23242 -4.74356 -5.13223 
-5.37493 -5.45506 -5.35418 -5.05959 -4.59508 -4.02742 
-3.44834 -2.93326 -2.52526 -2.22921 -2.03503 -1.92535 
-1.8922 -1.92493 -2.01773 -2.15315 -2.31837 -2.48955 
-2.65603 -2.79772 -2.91521 -2.99498 -3.04971 -3.0677 
-3.07109 -3.04313 -3.01478 -2.95787 -2.91547 -2.8414 
-2.79821 -2.71268 -2.67885 -2.58239 -2.56732 -2.45581 
-2.47046 -2.33447 -2.39398 -2.21663 -2.34409 -2.09662 
-2.32952 -1.96273 -2.36405 -1.79573 -2.4316 -1.28571 
0.231304 -0.219519 -1.17465 -1.91422 -2.56912 -3.19277 
-3.78164 -4.31699 -4.77714 -5.14099 -5.38989 -5.50534 
-5.46091 -5.21289 -4.72148 -3.99365 -3.11256 -2.20621 
-1.39675 -0.756958 -0.312239 -0.0470764 0.0694908 0.0797991 
0.0154102 -0.0954682 -0.243012 -0.414572 -0.610097 -0.815949 
-1.03109 -1.23647 -1.43346 -1.60176 -1.75155 -1.86261 
-1.95668 -2.00975 -2.05614 -2.06136 -2.07525 -2.04472 
-2.04202 -1.98484 -1.97998 -1.90052 -1.90691 -1.80427 
-1.83578 -1.70324 -1.77618 -1.60022 -1.73566 -1.49443 
-1.72053 -1.38296 -1.73315 -1.26462 -1.74931 -0.857143 
0.268478 -2.33698 -3.34484 -3.98135 -4.50351 -4.95194 
-5.30354 -5.54421 -5.67342 -5.69336 -5.59598 -5.34746 
-4.88528 -4.14666 -3.1317 -1.93976 -0.739167 0.313496 
1.12722 1.68752 2.02373 2.18361 2.20773 2.13364 
1.98766 1.79756 1.57847 1.34763 1.10745 0.868042 
0.625956 0.392683 0.163924 -0.0449362 -0.241116 -0.407084 
-0.55689 -0.670953 -0.772499 -0.836778 -0.898077 -0.921116 
-0.954903 -0.946359 -0.966221 -0.933464 -0.952188 -0.898675 
-0.928173 -0.852855 -0.904858 -0.802275 -0.88898 -0.750267 
-0.883668 -0.699373 -0.887946 -0.647519 -0.895513 -0.428571 
-11.9972 -7.82442 -6.83159 -6.63561 -6.57595 -6.47867 
-6.30162 -6.05814 -5.76177 -5.39572 -4.90215 -4.19248 
-3.19373 -1.91566 -0.486246 0.894296 2.04651 2.88231 
3.40756 3.68544 3.79016 3.78475 3.70875 3.58578 
3.42504 3.23507 3.02044 2.79091 2.55126 2.31021 
2.06943 1.83529 1.6078 1.39284 1.19063 1.00641 
0.840262 0.694997 0.570185 0.465033 0.379486 0.308943 
0.255432 0.210551 0.180177 0.151774 0.136575 0.117094 
0.111231 0.0952202 0.0951231 0.0788165 0.0829589 0.0633356 
0.0722964 0.0458329 0.0628449 0.0254407 0.0559948 0 
-8.5653 -9.38873 -8.318 -7.57994 -6.90567 -6.25609 
-5.66653 -5.12622 -4.5641 -3.87199 -2.94315 -1.72508 
-0.271605 1.24954 2.61846 3.66188 4.31753 4.631 
4.7039 4.64113 4.51945 4.38354 4.25186 4.12813 
4.00697 3.88102 3.74336 3.5906 3.42325 3.24337 
3.05664 2.8651 2.67645 2.48911 2.31329 2.14196 
1.98996 1.84209 1.72054 1.59815 1.50882 1.40843 
1.34948 1.2638 1.23243 1.15232 1.14715 1.06264 
1.08516 0.98536 1.0407 0.913251 1.01023 0.841171 
0.991327 0.766399 0.981869 0.683817 0.981295 0.428571 
-5.13252 -5.61243 -5.64343 -5.13051 -4.50473 -3.97804 
-3.49533 -2.91291 -2.10533 -1.012 0.337143 1.81295 
3.21347 4.33292 5.04203 5.33087 5.29041 5.05567 
4.75028 4.45809 4.2203 4.04699 3.93057 3.85652 
3.8092 3.77369 3.73819 3.69239 3.63214 3.55287 
3.45888 3.34803 3.23079 3.10218 2.9777 2.84536 
2.72731 2.60088 2.49869 2.38267 2.30196 2.19616 
2.14005 2.04045 2.01138 1.91073 1.91221 1.80011 
1.83847 1.70076 1.78705 1.60463 1.75653 1.50402 
1.7472 1.39277 1.75799 1.2686 1.77287 0.857143 
-1.69588 -1.92852 -1.60502 -1.4242 -1.37791 -1.1476 
-0.558875 0.395171 1.61924 2.95928 4.22931 5.24458 
5.86807 6.05342 5.85651 5.40551 4.84754 4.30291 
3.8447 3.50176 3.27275 3.14072 3.08333 3.07867 
3.10795 3.15528 3.2084 3.25626 3.29251 3.31016 
3.30989 3.28762 3.25088 3.19499 3.13341 3.05665 
2.9846 2.89904 2.82894 2.74296 2.68407 2.60158 
2.56019 2.48048 2.46101 2.37892 2.38567 2.29182 
2.33143 2.21176 2.29631 2.1302 2.28114 2.0373 
2.29138 1.92061 2.33743 1.76748 2.39995 1.28571 
1.7478 1.75114 1.45748 1.07617 1.4263 2.38824 
3.63038 4.87762 5.93718 6.6784 7.02342 6.95368 
6.51787 5.82382 5.00902 4.2021 3.49427 2.93103 
2.52042 2.24792 2.0896 2.02042 2.01796 2.06346 
2.14169 2.24005 2.34826 2.45696 2.5593 2.64848 
2.7221 2.77615 2.81364 2.83184 2.83883 2.83021 
2.81873 2.79506 2.7774 2.74811 2.7334 2.70327 
2.69678 2.66577 2.67017 2.63446 2.65215 2.60511 
2.64075 2.5727 2.63591 2.53197 2.64112 2.47589 
2.66559 2.39137 2.73081 2.24351 2.88204 1.71429 
5.19754 4.30259 3.42254 4.7349 6.42858 7.74533 
8.52701 8.79699 8.62135 8.07585 7.24718 6.23774 
5.16037 4.12189 3.20381 2.45112 1.8736 1.45648 
1.17334 0.996128 0.900556 0.867797 0.883922 0.938561 
1.02361 1.13215 1.25783 1.39434 1.53581 1.67644 
1.81208 1.93864 2.05526 2.1597 2.25447 2.33763 
2.41429 2.48064 2.54415 2.5973 2.65087 2.69195 
2.73707 2.76559 2.80358 2.81862 2.85209 2.8526 
2.88631 2.87026 2.91174 2.87409 2.93544 2.86432 
2.96686 2.83554 3.02281 2.76346 3.18521 2.14286 
8.61941 6.60193 10.5461 12.5159 12.6604 11.938 
10.7809 9.41143 7.9541 6.49561 5.1079 3.85246 
2.77483 1.89787 1.21989 0.719312 0.363499 0.11778 
-0.0481359 -0.157121 -0.224279 -0.258182 -0.262748 -0.239084 
-0.186987 -0.106015 0.00378721 0.141393 0.304585 0.48984 
0.69271 0.907865 1.13001 1.35348 1.57368 1.7856 
1.98627 2.17171 2.34106 2.49135 2.6242 2.73721 
2.83467 2.91379 2.98168 3.03365 3.08021 3.1126 
3.14635 3.16554 3.19414 3.20392 3.23424 3.23476 
3.27411 3.2599 3.31742 3.2719 3.24158 2.57143 
12 21.8481 21.9943 18.5483 15.1305 12.1013 
9.47576 7.21197 5.27684 3.65132 2.3232 1.27741 
0.489203 -0.0774845 -0.466682 -0.72446 -0.893068 -1.00691 
-1.09073 -1.15972 -1.22084 -1.27465 -1.3173 -1.34225 
-1.34167 -1.30753 -1.23241 -1.11028 -0.937481 -0.713407 
-0.44135 -0.128138 0.215714 0.578097 0.945151 1.30478 
1.64494 1.95827 2.23748 2.48176 2.68825 2.86194 
3.00193 3.11744 3.20641 3.28141 3.33631 3.38769 
3.42228 3.46341 3.48648 3.52703 3.54186 3.58891 
3.5922 3.65109 3.6224 3.66829 3.16473 3 
