# vtk DataFile Version 2.0 
Lid_driven streamfuntion-vorticity 
ASCII 
DATASET RECTILINEAR_GRID 
DIMENSIONS 51 51 1
X_COORDINATES 51 float 
0 
0.02 0.04 0.06 0.08 0.1 0.12 
0.14 0.16 0.18 0.2 0.22 0.24 
0.26 0.28 0.3 0.32 0.34 0.36 
0.38 0.4 0.42 0.44 0.46 0.48 
0.5 0.52 0.54 0.56 0.58 0.6 
0.62 0.64 0.66 0.68 0.7 0.72 
0.74 0.76 0.78 0.8 0.82 0.84 
0.86 0.88 0.9 0.92 0.94 0.96 
0.98 1 
Y_COORDINATES 51 float 
0 
0.02 0.04 0.06 0.08 0.1 0.12 
0.14 0.16 0.18 0.2 0.22 0.24 
0.26 0.28 0.3 0.32 0.34 0.36 
0.38 0.4 0.42 0.44 0.46 0.48 
0.5 0.52 0.54 0.56 0.58 0.6 
0.62 0.64 0.66 0.68 0.7 0.72 
0.74 0.76 0.78 0.8 0.82 0.84 
0.86 0.88 0.9 0.92 0.94 0.96 
0.98 1 
Z_COORDINATES 1 float 
0 

POINT_DATA 2601
SCALARS Streamfunction float
LOOKUP_TABLE default 
0 0 0 0 0 0 
0 0 0 0 0 0 
0 0 0 0 0 0 
0 0 0 0 0 0 
0 0 0 0 0 0 
0 0 0 0 0 0 
0 0 0 0 0 0 
0 0 0 0 0 0 
0 0 0 0 -2.21972e-05 1.2689e-05 2.87192e-05 4.11115e-05 4.65891e-05 
4.65683e-05 4.12414e-05 3.11601e-05 1.64822e-05 -2.93706e-06 -2.7521e-05 
-5.77886e-05 -9.4175e-05 -0.000136867 -0.000185676 -0.000239946 -0.000298482 
-0.000359527 -0.000420777 -0.000479446 -0.000532404 -0.000576348 -0.000608035 
-0.000624537 -0.000623514 -0.00060348 -0.000564032 -0.000506022 -0.000431626 
-0.000344294 -0.000248553 -0.000149671 -5.31966e-05 3.55638e-05 0.000112067 
0.000172969 0.000216402 0.000242053 0.000251033 0.000245575 0.000228615 
0.000203357 0.000172856 0.000139772 0.000106033 7.34251e-05 4.162e-05 
1.45349e-05 -2.54541e-05 0 0 1.12913e-05 7.7209e-05 0.000121763 0.00015182 0.00016252 
0.000153988 0.000126822 8.18817e-05 1.93537e-05 -6.14249e-05 -0.00016172 
-0.000282851 -0.000425581 -0.000589588 -0.000773074 -0.000972517 -0.00118258 
-0.00139619 -0.00160479 -0.00179872 -0.00196785 -0.00210215 -0.00219242 
-0.00223096 -0.00221225 -0.00213342 -0.00199476 -0.00179993 -0.00155601 
-0.00127333 -0.000964902 -0.000645674 -0.000331419 -3.75058e-05 0.00022241 
0.000437556 0.000600932 0.000709765 0.000765449 0.000773005 0.000740127 
0.00067601 0.000590151 0.000491347 0.000387018 0.000283283 0.000184406 
9.69454e-05 1.12197e-05 0 0 2.84213e-05 0.000124059 0.000196004 0.000238656 0.00024234 
0.000205156 0.000127183 9.07049e-06 -0.000149449 -0.000349794 -0.000593927 
-0.00088324 -0.00121738 -0.00159329 -0.00200462 -0.00244152 -0.0028908 
-0.00333645 -0.00376054 -0.00414418 -0.00446871 -0.00471679 -0.00487346 
-0.00492701 -0.00486978 -0.00469873 -0.00441596 -0.00402892 -0.00355052 
-0.00299877 -0.00239616 -0.00176853 -0.00114353 -0.000548713 -9.48437e-06 
0.000452925 0.000823134 0.00109272 0.00126058 0.00133244 0.00131969 
0.00123755 0.00110311 0.000933352 0.000743778 0.000548009 0.000357643 
0.000186953 3.99196e-05 0 0 4.18914e-05 0.000155965 0.000239249 0.000273814 0.000244182 
0.000145461 -2.37757e-05 -0.000263946 -0.00057627 -0.000962808 -0.00142528 
-0.00196331 -0.00257272 -0.00324443 -0.00396399 -0.00471188 -0.00546437 
-0.00619484 -0.00687539 -0.00747834 -0.00797776 -0.00835062 -0.00857785 
-0.00864506 -0.00854326 -0.00826943 -0.00782704 -0.00722647 -0.00648522 
-0.00562781 -0.00468522 -0.00369371 -0.00269297 -0.0017237 -0.000824773 
-3.02662e-05 0.000633165 0.00114826 0.00150817 0.00171631 0.00178523 
0.00173446 0.00158792 0.00137119 0.00110922 0.000825437 0.000541669 
0.000283387 7.13913e-05 0 0 4.70829e-05 0.000163309 0.00023254 0.000227422 0.000127139 
-7.65495e-05 -0.000387334 -0.000807321 -0.00133874 -0.00198344 -0.00274097 
-0.00360632 -0.00456812 -0.00560781 -0.0067 -0.00781364 -0.00891388 
-0.00996415 -0.0109281 -0.0117714 -0.0124628 -0.0129754 -0.013287 
-0.013381 -0.0132467 -0.0128801 -0.0122847 -0.0114716 -0.010461 
-0.00928167 -0.00797127 -0.00657525 -0.00514502 -0.00373515 -0.00239972 
-0.00118832 -0.000142088 0.000709419 0.0013502 0.00177827 0.00200465 
0.0020511 0.00194702 0.00172606 0.00142316 0.00107294 0.000709589 
0.000372185 9.94178e-05 0 0 4.28274e-05 0.000138683 0.000160672 7.57377e-05 -0.000141013 
-0.000501059 -0.00101071 -0.00167384 -0.00249295 -0.00346783 -0.0045931 
-0.00585579 -0.00723411 -0.00869763 -0.0102088 -0.0117252 -0.0132022 
-0.0145953 -0.015862 -0.0169633 -0.0178642 -0.018535 -0.018951 
-0.0190933 -0.0189493 -0.018513 -0.0177862 -0.016779 -0.0155113 
-0.0140133 -0.0123262 -0.0105023 -0.00860283 -0.00669601 -0.00485243 
-0.00314001 -0.00161837 -0.000333866 0.00068397 0.00142397 0.00189273 
0.00211213 0.00211576 0.00194481 0.00164434 0.00126111 0.000843044 
0.000444436 0.000122353 0 0 2.63052e-05 7.42289e-05 9.63903e-06 -0.000201335 -0.000585999 
-0.00115864 -0.00192803 -0.00289909 -0.0040729 -0.0054446 -0.00700064 
-0.00871713 -0.0105597 -0.0124852 -0.0144443 -0.0163849 -0.0182545 
-0.0200027 -0.0215827 -0.0229521 -0.0240738 -0.0249162 -0.0254533 
-0.0256646 -0.0255359 -0.0250591 -0.0242333 -0.0230658 -0.0215734 
-0.019784 -0.0177382 -0.0154898 -0.0131065 -0.0106672 -0.0082584 
-0.00596832 -0.00387938 -0.00206067 -0.000561636 0.000591598 0.0013968 
0.00187327 0.00205746 0.00199783 0.00175001 0.00137378 0.000931999 
0.000495225 0.000138615 0 0 -4.8535e-06 -3.69034e-05 -0.000231846 -0.000618733 -0.00122546 
-0.00206842 -0.00315808 -0.00449886 -0.00608796 -0.00791276 -0.00994873 
-0.0121589 -0.0144956 -0.0169034 -0.0193225 -0.0216927 -0.0239553 
-0.0260556 -0.027944 -0.0295766 -0.0309159 -0.0319302 -0.0325939 
-0.032887 -0.0327946 -0.0323074 -0.0314216 -0.0301406 -0.0284756 
-0.0264486 -0.0240942 -0.021462 -0.0186189 -0.0156484 -0.0126486 
-0.00972699 -0.00699123 -0.00453936 -0.00244927 -0.000771007 0.000476763 
0.00130558 0.00175225 0.00187207 0.0017321 0.00140657 0.000974657 
0.000524279 0.000148477 0 0 -5.27173e-05 -0.000199873 -0.000571307 -0.00118504 -0.00206772 
-0.0032368 -0.00470307 -0.00646816 -0.00852248 -0.0108428 -0.0133914 
-0.0161174 -0.0189597 -0.0218517 -0.0247246 -0.0275111 -0.030148 
-0.0325778 -0.0347501 -0.0366218 -0.0381574 -0.0393279 -0.0401104 
-0.0404868 -0.0404438 -0.0399718 -0.0390651 -0.0377227 -0.0359498 
-0.0337595 -0.0311762 -0.028239 -0.0250057 -0.021555 -0.0179879 
-0.014424 -0.0109943 -0.00782905 -0.00504295 -0.00272171 -0.000912518 
0.000378627 0.0011829 0.00156025 0.00158974 0.00136194 0.000974488 
0.000534375 0.00015312 0 0 -0.000118559 -0.000417331 -0.00101143 -0.00190141 -0.00311075 
-0.00465662 -0.00654816 -0.00878153 -0.0113375 -0.0141798 -0.0172563 
-0.0205018 -0.0238428 -0.0272019 -0.0305026 -0.033672 -0.0366442 
-0.0393612 -0.0417747 -0.043845 -0.0455412 -0.0468392 -0.0477208 
-0.0481719 -0.0481818 -0.0477422 -0.0468466 -0.045491 -0.0436747 
-0.0414019 -0.0386848 -0.0355478 -0.0320322 -0.0282023 -0.0241492 
-0.0199924 -0.0158765 -0.01196 -0.00839844 -0.00532433 -0.00282887 
-0.000951188 0.00032233 0.0010497 0.00132038 0.00124288 0.000936212 
0.000529251 0.000154096 0 0 -0.000202623 -0.000688862 -0.00154944 -0.002761 -0.00434192 
-0.00630738 -0.00866249 -0.0113952 -0.014474 -0.0178482 -0.0214503 
-0.0252013 -0.0290154 -0.0328062 -0.0364902 -0.0399916 -0.0432441 
-0.0461925 -0.0487933 -0.0510129 -0.052827 -0.0542181 -0.0551735 
-0.0556841 -0.0557426 -0.055343 -0.0544794 -0.0531462 -0.0513388 
-0.0490543 -0.0462939 -0.0430666 -0.0393942 -0.0353188 -0.0309098 
-0.0262714 -0.0215447 -0.0169032 -0.0125376 -0.00863206 -0.00533626 
-0.00274216 -0.000872821 0.000314185 0.000912131 0.00104692 0.000861735 
0.000511416 0.000152575 0 0 -0.000303932 -0.00101072 -0.00217696 -0.00374921 -0.0057387 
-0.00815657 -0.0110014 -0.0142504 -0.017858 -0.0217576 -0.0258667 
-0.0300924 -0.0343382 -0.0385095 -0.042519 -0.0462905 -0.0497608 
-0.0528806 -0.0556135 -0.0579341 -0.0598257 -0.0612774 -0.0622825 
-0.0628364 -0.0629356 -0.0625762 -0.0617538 -0.0604632 -0.0586979 
-0.0564509 -0.0537159 -0.0504895 -0.0467758 -0.0425924 -0.0379805 
-0.033015 -0.0278148 -0.0225468 -0.0174193 -0.0126606 -0.00848533 
-0.00505694 -0.00245945 -0.000688096 0.000339838 0.000762122 0.000747233 
0.000480557 0.000148857 0 0 -0.000420248 -0.00137588 -0.00288039 -0.00484448 -0.00727 
-0.0101619 -0.0135098 -0.0172781 -0.0214056 -0.0258097 -0.0303927 
-0.035049 -0.0396728 -0.0441643 -0.0484353 -0.0524129 -0.0560403 
-0.0592765 -0.0620942 -0.0644765 -0.0664141 -0.0679023 -0.0689392 
-0.0695241 -0.0696561 -0.0693335 -0.0685537 -0.0673124 -0.0656034 
-0.0634186 -0.0607485 -0.0575823 -0.0539114 -0.0497335 -0.0450611 
-0.0399337 -0.034433 -0.0286962 -0.0229227 -0.0173631 -0.0122885 
-0.00794342 -0.00449652 -0.00200949 -0.00043394 0.000366393 0.000582159 
0.000432915 0.000142173 0 0 -0.000548172 -0.00177449 -0.00364175 -0.00601967 -0.0088983 
-0.0122741 -0.0161259 -0.0204033 -0.025029 -0.0299043 -0.0349172 
-0.0399511 -0.0448934 -0.0496424 -0.054113 -0.0582387 -0.0619719 
-0.0652816 -0.0681496 -0.0705673 -0.0725315 -0.0740426 -0.0751021 
-0.0757114 -0.0758716 -0.0755824 -0.0748425 -0.073649 -0.071997 
-0.0698797 -0.0672873 -0.0642072 -0.0606246 -0.0565244 -0.0518974 
-0.0467501 -0.0411212 -0.0351016 -0.028854 -0.0226193 -0.0167 
-0.0114138 -0.00702862 -0.00370245 -0.0014534 -0.000170028 0.000350244 
0.000361678 0.000130811 0 0 -0.000683363 -0.00219444 -0.00443984 -0.00724377 -0.0105819 
-0.0144403 -0.0187849 -0.0235501 -0.0286419 -0.0339462 -0.0393384 
-0.0446932 -0.0498947 -0.054843 -0.0594594 -0.0636867 -0.0674881 
-0.0708425 -0.0737406 -0.0761803 -0.0781635 -0.0796934 -0.0807735 
-0.0814065 -0.081594 -0.0813366 -0.0806337 -0.0794836 -0.077883 
-0.0758271 -0.073308 -0.0703149 -0.0668322 -0.0628405 -0.058318 
-0.0532475 -0.0476293 -0.0415033 -0.034976 -0.0282458 -0.0216088 
-0.0154289 -0.0100696 -0.00580701 -0.00276161 -0.000880215 3.17327e-05 
0.000258007 0.000112437 0 0 -0.000820862 -0.00262221 -0.00525151 -0.00848376 -0.0122776 
-0.0166067 -0.0214233 -0.0266457 -0.0321642 -0.0378503 -0.043569 
-0.0491896 -0.0545963 -0.0596946 -0.0644148 -0.0687109 -0.0725566 
-0.0759404 -0.0788602 -0.0813189 -0.0833215 -0.0848728 -0.085977 
-0.0866368 -0.086854 -0.086629 -0.0859617 -0.0848511 -0.0832953 
-0.0812911 -0.0788338 -0.0759152 -0.0725232 -0.0686394 -0.064239 
-0.0592924 -0.0537738 -0.047678 -0.0410506 -0.0340241 -0.0268493 
-0.0198939 -0.0135912 -0.00833926 -0.00439231 -0.00179576 -0.000394162 
0.000112126 8.44164e-05 0 0 -0.000955447 -0.00304371 -0.00605302 -0.0097064 -0.0139428 
-0.0187218 -0.0239813 -0.0296241 -0.0355254 -0.0415447 -0.047539 
-0.0533756 -0.0589421 -0.0641522 -0.0689469 -0.0732913 -0.0771693 
-0.0805774 -0.0835188 -0.0859999 -0.0880271 -0.0896058 -0.0907398 
-0.0914316 -0.0916822 -0.0914921 -0.0908609 -0.0897879 -0.0882722 
-0.086312 -0.0839046 -0.0810454 -0.0777263 -0.0739336 -0.0696454 
-0.0648303 -0.0594498 -0.0534684 -0.046878 -0.0397385 -0.0322262 
-0.024667 -0.0175191 -0.0112829 -0.00636249 -0.00294232 -0.000947129 
-8.58663e-05 4.40156e-05 0 0 -0.001082 -0.00344513 -0.00682126 -0.0108798 -0.0155372 
-0.020738 -0.0264057 -0.0324281 -0.0386671 -0.0449724 -0.0511961 
-0.0572066 -0.0628974 -0.0681921 -0.0730427 -0.0774251 -0.0813318 
-0.0847654 -0.0877331 -0.0902428 -0.0923014 -0.0939141 -0.095084 
-0.0958128 -0.0961012 -0.0959491 -0.0953559 -0.094321 -0.0928435 
-0.0909228 -0.0885575 -0.0857455 -0.0824825 -0.0787601 -0.0745623 
-0.0698627 -0.0646215 -0.0587887 -0.0523196 -0.0452087 -0.0375464 
-0.0295797 -0.0217393 -0.0145861 -0.00866665 -0.00433538 -0.00164383 
-0.000345411 -1.15112e-05 0 0 -0.00119584 -0.00381361 -0.00753476 -0.0119747 -0.0170249 
-0.0226138 -0.0286508 -0.0350103 -0.0415429 -0.0480908 -0.0545042 
-0.0606547 -0.0664437 -0.0718052 -0.0767018 -0.0811186 -0.0850554 
-0.088519 -0.0915189 -0.0940637 -0.0961601 -0.0978125 -0.0990234 
-0.0997937 -0.100124 -0.100013 -0.09946 -0.0984649 -0.0970266 
-0.0951444 -0.0928179 -0.0900462 -0.0868278 -0.0831586 -0.079029 
-0.0744203 -0.0692987 -0.0636135 -0.0573009 -0.0503085 -0.0426461 
-0.0344622 -0.0261133 -0.0181647 -0.0112738 -0.0059767 -0.00249586 
-0.000674852 -8.48382e-05 0 0 -0.00129298 -0.00413784 -0.00817445 -0.0129653 -0.0183746 
-0.0243139 -0.0306794 -0.0373338 -0.0441183 -0.0508704 -0.0574403 
-0.0637048 -0.0695739 -0.0749914 -0.0799297 -0.0843817 -0.0883521 
-0.0918509 -0.0948887 -0.097474 -0.099613 -0.101309 -0.102565 
-0.10338 -0.103754 -0.103687 -0.103178 -0.102225 -0.100828 
-0.0989861 -0.0966987 -0.0939656 -0.0907865 -0.0871602 -0.0830823 
-0.0785416 -0.0735139 -0.0679554 -0.0617997 -0.0549679 -0.047407 
-0.0391663 -0.0304968 -0.0219123 -0.0141289 -0.00785182 -0.00350769 
-0.0010806 -0.00017841 0 0 -0.00137028 -0.0044085 -0.00872425 -0.01383 -0.0195604 
-0.0258099 -0.0324625 -0.0393708 -0.0463692 -0.0532921 -0.0599918 
-0.0663509 -0.0722879 -0.0777557 -0.0827348 -0.0872241 -0.0912322 
-0.0947707 -0.0978506 -0.10048 -0.102665 -0.104408 -0.10571 
-0.106571 -0.106992 -0.106971 -0.106508 -0.1056 -0.104248 
-0.102449 -0.100204 -0.097511 -0.0943711 -0.0907841 -0.0867489 
-0.0822603 -0.0773035 -0.0718457 -0.065828 -0.0591635 -0.051759 
-0.0435796 -0.034759 -0.0257135 -0.0171577 -0.00992996 -0.00467508 
-0.00156619 -0.000294207 0 0 -0.0014256 -0.00461843 -0.0091713 -0.0145513 -0.0205621 
-0.0270803 -0.0339787 -0.0411022 -0.0482799 -0.0553452 -0.0621531 
-0.0685924 -0.0745894 -0.0801047 -0.0851253 -0.0896545 -0.0937034 
-0.0972847 -0.100409 -0.103085 -0.105317 -0.107107 -0.108457 
-0.109367 -0.109835 -0.109862 -0.109447 -0.108587 -0.107282 
-0.105531 -0.103331 -0.100683 -0.0975857 -0.0940394 -0.0900447 
-0.0856002 -0.0806987 -0.0753188 -0.069414 -0.0629027 -0.0556736 
-0.0476298 -0.0387942 -0.029458 -0.0202759 -0.0121664 -0.00598447 
-0.0021315 -0.000433495 0 0 -0.00145777 -0.0047628 -0.00950611 -0.0151161 -0.0213644 
-0.028109 -0.0352132 -0.0425152 -0.0498412 -0.0570245 -0.0639234 
-0.0704323 -0.076484 -0.0820454 -0.0871083 -0.0916793 -0.095771 
-0.0993968 -0.102567 -0.10529 -0.107569 -0.109407 -0.110805 
-0.111763 -0.11228 -0.112356 -0.11199 -0.111181 -0.109927 
-0.108226 -0.106077 -0.103479 -0.100429 -0.0969283 -0.0929768 
-0.0885754 -0.0837218 -0.0784041 -0.0725896 -0.0662095 -0.0591513 
-0.0512807 -0.0425284 -0.0330516 -0.0233984 -0.0145072 -0.00741378 
-0.00277235 -0.000596618 0 0 -0.00146655 -0.00483906 -0.00972249 -0.0155154 -0.0219567 
-0.0288858 -0.0361566 -0.043603 -0.0510491 -0.0583292 -0.0653047 
-0.0718746 -0.0779771 -0.0835836 -0.0886894 -0.0933032 -0.0974385 
-0.101109 -0.104325 -0.107094 -0.109419 -0.111304 -0.11275 
-0.113755 -0.114322 -0.114448 -0.114133 -0.113377 -0.112176 
-0.110531 -0.108437 -0.105894 -0.102898 -0.0994492 -0.0955469 
-0.0911923 -0.0863861 -0.0811233 -0.0753832 -0.0691128 -0.0622096 
-0.0545236 -0.0459177 -0.0364218 -0.0264479 -0.0168947 -0.00893443 
-0.00348065 -0.000782889 0 0 -0.00145259 -0.00484686 -0.00981748 -0.0157438 -0.022333 
-0.0294047 -0.0368044 -0.0443627 -0.0519031 -0.0592609 -0.0663005 
-0.0729243 -0.0790742 -0.0847246 -0.089873 -0.0945293 -0.0987077 
-0.102422 -0.105682 -0.108495 -0.110866 -0.112797 -0.114288 
-0.115342 -0.115957 -0.116135 -0.115873 -0.115171 -0.114028 
-0.11244 -0.110407 -0.107924 -0.104989 -0.101599 -0.0977533 
-0.0934527 -0.0886985 -0.0834903 -0.0778167 -0.0716399 -0.0648735 
-0.057368 -0.0489431 -0.0395197 -0.0293601 -0.0192732 -0.0105142 
-0.00424509 -0.000990599 0 0 -0.0014173 -0.00478792 -0.00979116 -0.0157995 -0.0224907 
-0.0296637 -0.0371557 -0.0447949 -0.0524052 -0.0598231 -0.0669151 
-0.0735859 -0.0797796 -0.0854721 -0.090662 -0.0953596 -0.0995795 
-0.103335 -0.106637 -0.109493 -0.111907 -0.113881 -0.115418 
-0.116519 -0.117184 -0.117412 -0.117205 -0.11656 -0.115476 
-0.113951 -0.111981 -0.109565 -0.106696 -0.103373 -0.0995931 
-0.0953554 -0.0906615 -0.0855129 -0.0799051 -0.0738134 -0.0671687 
-0.0598328 -0.051604 -0.0423174 -0.0320869 -0.0215938 -0.0121202 
-0.00505215 -0.00121716 0 0 -0.00136269 -0.00466582 -0.00964652 -0.0156843 -0.0224309 
-0.0296642 -0.0372126 -0.0449028 -0.0525592 -0.0600201 -0.067153 
-0.0738638 -0.080097 -0.0858291 -0.0910583 -0.0957951 -0.100054 
-0.103848 -0.107189 -0.110085 -0.112539 -0.114556 -0.116137 
-0.117283 -0.117997 -0.118277 -0.118125 -0.117539 -0.116517 
-0.115057 -0.113157 -0.110811 -0.108017 -0.104768 -0.101063 
-0.0968979 -0.0922746 -0.0871948 -0.0816582 -0.07565 -0.0691179 
-0.0619405 -0.0539114 -0.044804 -0.0345959 -0.0238162 -0.0137219 
-0.00588749 -0.00145933 0 0 -0.00129131 -0.00448585 -0.00938931 -0.0154029 -0.0221578 
-0.0294106 -0.0369801 -0.0446915 -0.0523708 -0.0598572 -0.0670189 
-0.0737618 -0.0800295 -0.0857975 -0.0910631 -0.0958361 -0.100131 
-0.10396 -0.107337 -0.110268 -0.11276 -0.114816 -0.116439 
-0.117631 -0.118393 -0.118726 -0.118629 -0.118103 -0.117146 
-0.115756 -0.113929 -0.11166 -0.108946 -0.10578 -0.102158 
-0.098077 -0.093536 -0.0885368 -0.0830812 -0.0771616 -0.0707399 
-0.0637133 -0.0558824 -0.0469811 -0.0368687 -0.0259108 -0.0152928 
-0.00673714 -0.00171354 0 0 -0.00120606 -0.00425475 -0.00902792 -0.014963 -0.0216784 
-0.0289099 -0.0364654 -0.0441686 -0.0518467 -0.0593404 -0.0665179 
-0.0732837 -0.0795796 -0.0853787 -0.0906767 -0.0954821 -0.0998085 
-0.10367 -0.107078 -0.110042 -0.112568 -0.114661 -0.116323 
-0.117559 -0.118368 -0.118753 -0.118713 -0.11825 -0.11736 
-0.116042 -0.114292 -0.112106 -0.109479 -0.106403 -0.102875 
-0.0988888 -0.0944428 -0.0895378 -0.0841765 -0.0783558 -0.0720489 
-0.065171 -0.0575365 -0.0488582 -0.0388984 -0.0278576 -0.0168121 
-0.00758862 -0.00197621 0 0 -0.00111008 -0.00398054 -0.00857325 -0.0143759 -0.0210031 
-0.028172 -0.0356783 -0.0433433 -0.0509956 -0.058477 -0.0656554 
-0.0724333 -0.0787494 -0.0845737 -0.089899 -0.0947321 -0.0990859 
-0.102974 -0.10641 -0.109402 -0.111958 -0.114084 -0.115784 
-0.117061 -0.117917 -0.118353 -0.118372 -0.117971 -0.117151 
-0.115909 -0.114241 -0.112143 -0.10961 -0.106634 -0.103208 
-0.0993287 -0.0949912 -0.0901956 -0.0849443 -0.079237 -0.0730553 
-0.06633 -0.0588926 -0.0504493 -0.0406863 -0.0296455 -0.0182647 
-0.00843169 -0.00224406 0 0 -0.00100666 -0.00367221 -0.00803854 -0.0136558 -0.0201456 
-0.0272099 -0.0346314 -0.0422275 -0.0498278 -0.0572756 -0.064438 
-0.071215 -0.0775414 -0.0833831 -0.0887295 -0.0935848 -0.0979609 
-0.101871 -0.105329 -0.108345 -0.110928 -0.113083 -0.114817 
-0.116133 -0.117034 -0.117521 -0.117597 -0.117262 -0.116513 
-0.115351 -0.11377 -0.111766 -0.109333 -0.106464 -0.103152 
-0.0993914 -0.0951767 -0.0905067 -0.0853833 -0.0798073 -0.0737661 
-0.0672034 -0.0599684 -0.0517701 -0.0422394 -0.0312704 -0.0196411 
-0.00925889 -0.00251435 0 0 -0.000899049 -0.00333941 -0.00743913 -0.0128201 -0.019123 
-0.0260398 -0.0333401 -0.0408355 -0.0483563 -0.0557469 -0.0628739 
-0.0696343 -0.0759587 -0.081808 -0.0871675 -0.0920383 -0.0964306 
-0.100357 -0.103832 -0.106867 -0.109471 -0.111652 -0.113417 
-0.114769 -0.115712 -0.11625 -0.116384 -0.116114 -0.115439 
-0.114359 -0.112869 -0.110965 -0.10864 -0.105887 -0.1027 
-0.0990705 -0.0949935 -0.0904666 -0.0854906 -0.0800667 -0.0741858 
-0.0678014 -0.0607789 -0.0528368 -0.0435678 -0.0327336 -0.020937 
-0.0100656 -0.00278511 0 0 -0.00079037 -0.00299214 -0.00679205 -0.0118897 -0.0179563 
-0.0246818 -0.0318232 -0.0391852 -0.0465971 -0.0539045 -0.0609736 
-0.0676987 -0.0740056 -0.0798502 -0.0852127 -0.0900906 -0.0944918 
-0.0984287 -0.101915 -0.104963 -0.107583 -0.109785 -0.111575 
-0.112961 -0.113944 -0.114531 -0.114722 -0.114518 -0.113919 
-0.112925 -0.11153 -0.109731 -0.107522 -0.104895 -0.101843 
-0.0983582 -0.094435 -0.0900698 -0.0852624 -0.0800138 -0.0743166 
-0.0681311 -0.0613367 -0.0536644 -0.0446834 -0.0340399 -0.0221522 
-0.0108502 -0.00305525 0 0 -0.000683502 -0.00264034 -0.00611558 -0.0108883 -0.0166711 
-0.0231605 -0.0301041 -0.0372984 -0.0445702 -0.0517657 -0.0587511 
-0.0654184 -0.0716889 -0.077513 -0.0828656 -0.08774 -0.0921412 
-0.0960803 -0.0995705 -0.102625 -0.105256 -0.107474 -0.109286 
-0.1107 -0.111722 -0.112354 -0.112601 -0.112464 -0.111943 
-0.111037 -0.109742 -0.108054 -0.105968 -0.103476 -0.100571 
-0.0972454 -0.0934928 -0.0893092 -0.0846934 -0.0796456 -0.0741587 
-0.0681974 -0.0616516 -0.054266 -0.0455981 -0.0351965 -0.0232896 
-0.0116137 -0.0033247 0 0 -0.000580976 -0.00229347 -0.00542853 -0.00984232 -0.0152967 
-0.0215053 -0.0282109 -0.0352015 -0.0423 -0.0493524 -0.0562249 
-0.0628079 -0.0690187 -0.0748024 -0.0801285 -0.0849857 -0.0893755 
-0.0933071 -0.0967932 -0.0998473 -0.102482 -0.104709 -0.106538 
-0.107977 -0.109033 -0.10971 -0.110012 -0.109941 -0.109498 
-0.108682 -0.107491 -0.105921 -0.103965 -0.101618 -0.098873 
-0.0957214 -0.0921574 -0.0881767 -0.0837773 -0.0789579 -0.073711 
-0.0680029 -0.061731 -0.0546527 -0.0463231 -0.036211 -0.0243548 
-0.0123598 -0.00359445 0 0 -0.000484896 -0.00196017 -0.00474955 -0.00877972 -0.0138669 
-0.0197512 -0.0261776 -0.0329268 -0.0398167 -0.0466918 -0.0534187 
-0.0598865 -0.0660095 -0.0717283 -0.0770069 -0.0818292 -0.0861928 
-0.0901046 -0.093576 -0.0966206 -0.0992517 -0.101482 -0.103321 
-0.10478 -0.105865 -0.106583 -0.106938 -0.106933 -0.10657 
-0.105847 -0.104764 -0.103316 -0.1015 -0.0993086 -0.0967356 
-0.0937741 -0.0904181 -0.086663 -0.0825063 -0.0779452 -0.0729705 
-0.0675481 -0.0615795 -0.054833 -0.0468676 -0.037091 -0.0253541 
-0.0130942 -0.0038667 0 0 -0.000396899 -0.00164791 -0.00409633 -0.00772943 -0.0124187 
-0.0179388 -0.0240445 -0.0305132 -0.037157 -0.0438181 -0.050363 
-0.0566803 -0.0626823 -0.0683059 -0.0735106 -0.0782752 -0.0825936 
-0.0864696 -0.089913 -0.0929368 -0.0955544 -0.0977789 -0.0996223 
-0.101095 -0.102205 -0.102961 -0.103367 -0.103426 -0.103143 
-0.102515 -0.101544 -0.100226 -0.0985567 -0.0965316 -0.0941448 
-0.0913904 -0.0882628 -0.0847577 -0.0808718 -0.0766008 -0.0719328 
-0.0668312 -0.0611989 -0.0548121 -0.0472381 -0.0378419 -0.0262944 
-0.0138248 -0.00414499 0 0 -0.00031815 -0.00136289 -0.00348499 -0.00672014 -0.0109916 
-0.0161136 -0.0218591 -0.0280069 -0.034365 -0.0407727 -0.0470955 
-0.0532226 -0.0590652 -0.0645577 -0.0696558 -0.0743343 -0.078583 
-0.0824025 -0.0858006 -0.0887889 -0.0913809 -0.0935898 -0.0954284 
-0.0969079 -0.0980379 -0.0988266 -0.0992803 -0.0994037 -0.0991999 
-0.0986703 -0.0978149 -0.0966321 -0.0951191 -0.0932719 -0.091086 
-0.0885566 -0.0856792 -0.0824497 -0.0788642 -0.0749165 -0.0705912 
-0.0658478 -0.0605873 -0.054591 -0.0474373 -0.038466 -0.0271809 
-0.0145613 -0.00443454 0 0 -0.0002494 -0.00110998 -0.00292983 -0.00577939 -0.00962644 
-0.0143261 -0.0196758 -0.0254627 -0.0314936 -0.0376054 -0.0436629 
-0.0495556 -0.0551951 -0.0605145 -0.0654672 -0.0700245 -0.0741727 
-0.0779093 -0.0812397 -0.084174 -0.0867247 -0.0889051 -0.0907282 
-0.0922058 -0.0933485 -0.0941653 -0.0946635 -0.0948488 -0.0947252 
-0.0942953 -0.0935602 -0.0925195 -0.0911719 -0.0895148 -0.0875452 
-0.0852598 -0.0826551 -0.0797277 -0.076473 -0.0728825 -0.0689367 
-0.0645894 -0.0597374 -0.0541647 -0.0474618 -0.0389604 -0.0280162 
-0.0153147 -0.00474303 0 0 -0.000191139 -0.000893278 -0.00244367 -0.00493353 -0.00836459 
-0.0126299 -0.0175556 -0.0229435 -0.0286046 -0.0343754 -0.0401207 
-0.0457308 -0.0511184 -0.0562171 -0.060979 -0.0653734 -0.0693837 
-0.0730048 -0.0762394 -0.0790958 -0.0815853 -0.0837207 -0.0855147 
-0.0869796 -0.0881265 -0.0889651 -0.0895035 -0.0897484 -0.089705 
-0.0893769 -0.0887665 -0.087875 -0.0867024 -0.0852481 -0.0835107 
-0.0814886 -0.0791796 -0.0765808 -0.0736869 -0.0704868 -0.0669559 
-0.0630415 -0.0586346 -0.0535196 -0.0472997 -0.0393138 -0.0287968 
-0.0160973 -0.00508199 0 0 -0.000144024 -0.000717003 -0.00203931 -0.00420856 -0.00724778 
-0.0110812 -0.0155648 -0.0205205 -0.0257694 -0.0311518 -0.0365345 
-0.0418096 -0.0468921 -0.0517171 -0.056237 -0.0604205 -0.064249 
-0.0677153 -0.0708198 -0.0735688 -0.0759723 -0.0780418 -0.0797897 
-0.0812282 -0.0823685 -0.0832208 -0.083794 -0.0840956 -0.0841318 
-0.0839074 -0.0834263 -0.082691 -0.0817034 -0.0804646 -0.0789753 
-0.0772353 -0.075244 -0.0729986 -0.070493 -0.0677129 -0.0646285 
-0.0611799 -0.057252 -0.0526286 -0.0469256 -0.0395027 -0.0295094 
-0.0169213 -0.00546952 0 0 -0.000109515 -0.000588315 -0.00173317 -0.00363356 -0.00632018 
-0.00973931 -0.0137743 -0.0182712 -0.0230673 -0.0280126 -0.0329791 
-0.0378631 -0.0425832 -0.047077 -0.0512989 -0.0552179 -0.0588149 
-0.0620811 -0.0650153 -0.0676219 -0.0699091 -0.0718874 -0.0735683 
-0.0749633 -0.0760836 -0.0769396 -0.0775406 -0.0778948 -0.0780092 
-0.0778899 -0.077542 -0.0769695 -0.0761762 -0.0751649 -0.0739379 
-0.0724966 -0.0708415 -0.0689697 -0.0668737 -0.064536 -0.0619217 
-0.0589643 -0.0555432 -0.0514427 -0.0462928 -0.0394833 -0.0301231 
-0.0177958 -0.00593419 0 0 -9.28206e-05 -0.00052096 -0.0015507 -0.00324595 -0.00563177 
-0.008667 -0.0122586 -0.0162781 -0.0205849 -0.0250443 -0.029539 
-0.0339727 -0.0382692 -0.0423707 -0.0462346 -0.0498314 -0.0531426 
-0.0561587 -0.0588773 -0.0613014 -0.0634375 -0.0652948 -0.0668836 
-0.0682146 -0.0692985 -0.0701457 -0.0707654 -0.0711663 -0.0713562 
-0.071342 -0.0711299 -0.0707253 -0.0701333 -0.069358 -0.0684034 
-0.0672717 -0.0659638 -0.0644761 -0.0627999 -0.0609141 -0.0587803 
-0.0563265 -0.0534303 -0.0498788 -0.0453202 -0.0391801 -0.0305777 
-0.0187176 -0.0065215 0 0 -0.000101766 -0.000544532 -0.00153725 -0.00310117 -0.00524603 
-0.00793566 -0.0110966 -0.0146269 -0.0184117 -0.022338 -0.0263044 
-0.0302263 -0.034036 -0.0376818 -0.0411253 -0.0443397 -0.0473081 
-0.050021 -0.0524755 -0.0546733 -0.0566199 -0.0583227 -0.0597909 
-0.0610341 -0.0620624 -0.0628852 -0.063512 -0.0639512 -0.0642111 
-0.0642987 -0.0642214 -0.0639848 -0.0635954 -0.0630573 -0.0623759 
-0.0615524 -0.0605888 -0.0594791 -0.0582149 -0.0567706 -0.0551086 
-0.0531522 -0.0507853 -0.047799 -0.0438719 -0.0384648 -0.0307634 
-0.0196521 -0.00729306 0 0 -0.000170474 -0.000713132 -0.00176418 -0.00327795 -0.0052429 
-0.00762561 -0.0103708 -0.0134032 -0.016637 -0.0199854 -0.0233684 
-0.0267175 -0.0299766 -0.0331024 -0.0360624 -0.0388337 -0.0414012 
-0.0437567 -0.0458971 -0.0478233 -0.0495395 -0.0510518 -0.0523681 
-0.0534964 -0.0544461 -0.055225 -0.0558428 -0.0563062 -0.0566245 
-0.0568028 -0.0568503 -0.0567702 -0.0565717 -0.0562554 -0.0558301 
-0.055292 -0.054648 -0.0538843 -0.0530002 -0.0519597 -0.0507383 
-0.0492479 -0.0473995 -0.0449783 -0.0417265 -0.03712 -0.0304885 
-0.0204809 -0.00833013 0 0 -0.000296714 -0.00109875 -0.00233799 -0.00388791 -0.00572931 
-0.00783564 -0.0101728 -0.0126948 -0.0153478 -0.018075 -0.0208216 
-0.0235389 -0.0261858 -0.0287294 -0.0311445 -0.033413 -0.0355229 
-0.037467 -0.0392428 -0.0408502 -0.0422929 -0.0435747 -0.0447029 
-0.0456823 -0.0465226 -0.0472278 -0.047809 -0.0482678 -0.0486173 
-0.0488556 -0.0489983 -0.0490384 -0.0489957 -0.048856 -0.0486443 
-0.0483355 -0.0479606 -0.0474761 -0.0469179 -0.0462083 -0.0453809 
-0.044291 -0.0429454 -0.0410583 -0.0385408 -0.034786 -0.0294377 
-0.0209325 -0.00964194 0 0 -0.000673642 -0.00185889 -0.00335653 -0.00500056 -0.00675364 
-0.00859809 -0.0105241 -0.0125182 -0.0145605 -0.0166262 -0.0186883 
-0.0207201 -0.0226974 -0.0245994 -0.0264098 -0.0281157 -0.0297089 
-0.0311832 -0.0325375 -0.0337697 -0.0348841 -0.0358803 -0.0367669 
-0.0375426 -0.0382204 -0.0387952 -0.0392855 -0.0396797 -0.0400037 
-0.040236 -0.0404137 -0.0405004 -0.0405499 -0.0405037 -0.0404394 
-0.040266 -0.0400952 -0.0397852 -0.0394956 -0.0390041 -0.0385346 
-0.037732 -0.0369002 -0.0354536 -0.0337769 -0.0308493 -0.027078 
-0.0203729 -0.0111668 0 0 -0.00106151 -0.00283267 -0.00476204 -0.00654384 -0.00819421 
-0.00973709 -0.0112052 -0.0126224 -0.0140039 -0.0153557 -0.0166772 
-0.0179633 -0.0192064 -0.0203982 -0.0215317 -0.0225994 -0.0235979 
-0.0245218 -0.0253725 -0.0261451 -0.0268469 -0.0274709 -0.0280308 
-0.0285151 -0.0289457 -0.0293022 -0.0296185 -0.0298598 -0.0300776 
-0.030215 -0.0303502 -0.0303928 -0.030461 -0.0304139 -0.0304301 
-0.0302916 -0.0302679 -0.0300228 -0.0299622 -0.0295669 -0.0294466 
-0.0287953 -0.028525 -0.0273717 -0.0266905 -0.0244602 -0.0226484 
-0.0177327 -0.0119007 0 0 -0.000739713 -0.00299352 -0.00486271 -0.00630531 -0.00747398 
-0.00843512 -0.00925493 -0.00997529 -0.0106267 -0.0112285 -0.0117931 
-0.0123262 -0.0128312 -0.0133077 -0.0137562 -0.0141737 -0.0145617 
-0.0149159 -0.0152407 -0.0155301 -0.0157928 -0.0160194 -0.0162244 
-0.0163926 -0.0165469 -0.0166621 -0.0167738 -0.0168412 -0.016919 
-0.0169427 -0.0169959 -0.0169776 -0.0170161 -0.0169544 -0.0169892 
-0.0168771 -0.0169204 -0.0167411 -0.0168052 -0.0165234 -0.016617 
-0.0161605 -0.0162779 -0.0154992 -0.0155931 -0.0141808 -0.0140782 
-0.0111744 -0.00948369 0 0 0 0 0 0 0 
0 0 0 0 0 0 
0 0 0 0 0 0 
0 0 0 0 0 0 
0 0 0 0 0 0 
0 0 0 0 0 0 
0 0 0 0 0 0 
0 0 0 0 0 0 
0 0 0 