# vtk DataFile Version 2.0 
Lid_driven streamfuntion-vorticity 
ASCII 
DATASET RECTILINEAR_GRID 
DIMENSIONS 51 51 1
X_COORDINATES 51 float 
0 
0.02 0.04 0.06 0.08 0.1 0.12 
0.14 0.16 0.18 0.2 0.22 0.24 
0.26 0.28 0.3 0.32 0.34 0.36 
0.38 0.4 0.42 0.44 0.46 0.48 
0.5 0.52 0.54 0.56 0.58 0.6 
0.62 0.64 0.66 0.68 0.7 0.72 
0.74 0.76 0.78 0.8 0.82 0.84 
0.86 0.88 0.9 0.92 0.94 0.96 
0.98 1 
Y_COORDINATES 51 float 
0 
0.02 0.04 0.06 0.08 0.1 0.12 
0.14 0.16 0.18 0.2 0.22 0.24 
0.26 0.28 0.3 0.32 0.34 0.36 
0.38 0.4 0.42 0.44 0.46 0.48 
0.5 0.52 0.54 0.56 0.58 0.6 
0.62 0.64 0.66 0.68 0.7 0.72 
0.74 0.76 0.78 0.8 0.82 0.84 
0.86 0.88 0.9 0.92 0.94 0.96 
0.98 1 
Z_COORDINATES 1 float 
0 

POINT_DATA 2601
SCALARS Vorticity float
LOOKUP_TABLE default 
0.185903 -0.0405006 -0.0345235 -0.225711 -0.268752 -0.317822 
-0.322192 -0.30448 -0.261406 -0.196642 -0.108672 0.00483244 
0.147425 0.322384 0.531956 0.776572 1.05427 1.36016 
1.68613 2.02058 2.34866 2.65275 2.91335 3.11039 
3.22489 3.24077 3.14677 2.93831 2.61876 2.20026 
1.70348 1.15637 0.591816 0.0444938 -0.452813 -0.872729 
-1.1961 -1.41361 -1.52591 -1.54235 -1.47861 -1.35397 
-1.18797 -0.999431 -0.800722 -0.609395 -0.412167 -0.269682 
-0.0184593 -0.022089 0.196109 -0.0357289 0.0747727 0.0431296 -0.0149836 -0.0464918 -0.0544295 
-0.0391829 0.00161894 0.0669884 0.157809 0.274373 0.417486 
0.587486 0.783885 1.00469 1.24597 1.50163 1.76344 
2.02136 2.26412 2.48 2.65774 2.78738 2.86102 
2.87346 2.82242 2.7087 2.53591 2.31025 2.03998 
1.73503 1.40657 1.06662 0.727756 0.402651 0.103567 
-0.15836 -0.373968 -0.536932 -0.644433 -0.697477 -0.700583 
-0.661224 -0.588281 -0.491836 -0.380282 -0.262597 -0.145882 
-0.0223682 0.0456283 -0.0111372 -0.0372526 0.0571291 0.0517985 0.0745099 0.0950958 0.128171 
0.176964 0.247239 0.34226 0.464019 0.612485 0.785949 
0.981025 1.1927 1.41431 1.63763 1.85341 2.05216 
2.22513 2.36531 2.46816 2.53191 2.55749 2.54803 
2.50809 2.44283 2.35715 2.25508 2.13939 2.01146 
1.87149 1.71887 1.55281 1.37303 1.1804 0.977588 
0.769324 0.562387 0.365107 0.18645 0.0347784 -0.0833996 
-0.164496 -0.208284 -0.218165 -0.200142 -0.1635 -0.115652 
-0.0725288 -0.00617053 -0.01516 -0.230532 0.00183649 0.0831448 0.162775 0.232361 0.303924 
0.385539 0.48541 0.609069 0.758542 0.932 1.12425 
1.3276 1.53273 1.72957 1.90832 2.06064 2.18077 
2.2664 2.31878 2.34223 2.34321 2.32899 2.30649 
2.28134 2.25724 2.23576 2.21635 2.19659 2.1726 
2.13946 2.09185 2.02457 1.93325 1.81495 1.66873 
1.49616 1.30147 1.09165 0.875969 0.665231 0.470508 
0.301623 0.165587 0.0652527 -0.00143514 -0.041785 -0.066276 
-0.0904943 -0.11272 -0.267571 -0.286142 -0.0214615 0.12271 0.254438 0.366555 0.473265 
0.585313 0.71272 0.861345 1.03153 1.21801 1.41132 
1.59984 1.77181 1.91722 2.02924 2.10531 2.14746 
2.16158 2.15612 2.1404 2.12308 2.11111 2.10924 
2.11995 2.14361 2.1788 2.2225 2.27028 2.31643 
2.35421 2.37619 2.3749 2.34351 2.27674 2.17159 
2.02786 1.84843 1.63913 1.40848 1.16711 0.926993 
0.700233 0.497454 0.325825 0.187195 0.0765695 -0.0169836 
-0.112326 -0.213482 -0.41715 -0.337574 -0.0123326 0.185479 0.358477 0.505275 0.641389 
0.77916 0.928768 1.09438 1.27281 1.45442 1.62604 
1.77444 1.88925 1.96498 2.00175 2.0049 1.98345 
1.94798 1.9087 1.8741 1.85046 1.84198 1.85123 
1.87952 1.92714 1.99331 2.07591 2.17117 2.27333 
2.37455 2.46509 2.53397 2.57017 2.56403 2.50885 
2.402 2.24541 2.04522 1.81087 1.55399 1.28733 
1.0238 0.77529 0.550968 0.35508 0.184641 0.0291804 
-0.130888 -0.305318 -0.588642 -0.323224 0.0363721 0.273214 0.475661 0.64799 0.806462 
0.963229 1.12654 1.29693 1.4666 1.62211 1.74902 
1.83628 1.87895 1.87886 1.84342 1.7833 1.70983 
1.63305 1.56086 1.49914 1.45239 1.4244 1.41856 
1.438 1.48529 1.56203 1.66833 1.80219 1.95878 
2.12997 2.30401 2.46595 2.59875 2.68541 2.71164 
2.66862 2.55477 2.37608 2.14465 1.87614 1.58723 
1.29355 1.00854 0.742226 0.499699 0.278901 0.069948 
-0.146598 -0.382399 -0.716979 -0.245178 0.132155 0.386663 0.603371 0.790945 0.963677 
1.13077 1.29632 1.45593 1.59758 1.70631 1.76999 
1.78329 1.74857 1.67419 1.57155 1.45212 1.32565 
1.19982 1.0808 0.974004 0.884714 0.818193 0.779612 
0.773851 0.805279 0.877488 0.992909 1.15219 1.35332 
1.5905 1.853 2.12444 2.38301 2.60317 2.75911 
2.82952 2.80232 2.67766 2.46787 2.1941 1.88122 
1.55277 1.22769 0.918804 0.632071 0.365591 0.109659 
-0.154376 -0.437346 -0.812947 -0.0817002 0.278611 0.522864 0.736439 0.928364 1.10648 
1.27355 1.42766 1.55949 1.65472 1.70015 1.68914 
1.62346 1.5116 1.36524 1.1961 1.0142 0.82783 
0.644194 0.47012 0.312244 0.176872 0.0697654 -0.00391612 
-0.0394935 -0.0325374 0.0213199 0.126374 0.286481 0.504197 
0.779313 1.10685 1.47482 1.8624 2.23961 2.5696 
2.8141 2.94138 2.93426 2.7951 2.54511 2.218 
1.85074 1.47516 1.11306 0.77481 0.459779 0.158279 
-0.148048 -0.468776 -0.872502 0.178929 0.478456 0.677513 0.868894 1.05419 1.22827 
1.38377 1.51193 1.59985 1.63383 1.60539 1.51474 
1.36977 1.18238 0.965001 0.728776 0.48355 0.238452 
0.0021952 -0.21719 -0.412858 -0.579465 -0.713097 -0.810852 
-0.870221 -0.888415 -0.861779 -0.785398 -0.653025 -0.457519 
-0.192037 0.147786 0.560595 1.03535 1.54767 2.05827 
2.51572 2.8647 3.05872 3.07334 2.91388 2.61357 
2.22245 1.79212 1.36307 0.958399 0.583562 0.230476 
-0.119441 -0.475747 -0.906045 0.54689 0.730984 0.845298 0.995093 1.16313 1.32353 
1.45556 1.54402 1.5748 1.53764 1.43044 1.25978 
1.03766 0.777696 0.493003 0.195906 -0.101732 -0.388702 
-0.655256 -0.893973 -1.10017 -1.27172 -1.40833 -1.5107 
-1.57956 -1.61482 -1.6148 -1.57558 -1.49053 -1.35005 
-1.14196 -0.852828 -0.470826 0.00953317 0.580992 1.21697 
1.86779 2.46355 2.92635 3.19017 3.22148 3.0306 
2.66715 2.20145 1.70126 1.21439 0.762223 0.343503 
-0.0596786 -0.45908 -0.923239 1.02506 1.03323 1.02107 1.11054 1.25134 1.38857 
1.48592 1.52314 1.48757 1.37438 1.18806 0.940315 
0.646145 0.321195 -0.0190126 -0.359186 -0.684992 -0.984438 
-1.24916 -1.47491 -1.66123 -1.8104 -1.92629 -2.01323 
-2.07505 -2.11433 -2.13176 -2.12551 -2.09057 -2.01799 
-1.89431 -1.70143 -1.41773 -1.02134 -0.496664 0.155985 
0.909385 1.70194 2.44045 3.01795 3.34418 3.37653 
3.13493 2.6916 2.14091 1.56624 1.01882 0.514493 
0.040454 -0.418395 -0.932604 1.60886 1.37972 1.20043 1.21229 1.31666 1.42192 
1.47501 1.45262 1.34577 1.15602 0.893936 0.575622 
0.219421 -0.155557 -0.530088 -0.886119 -1.20879 -1.48823 
-1.72021 -1.90561 -2.04897 -2.15692 -2.23672 -2.2952 
-2.33809 -2.36965 -2.39229 -2.40634 -2.40939 -2.39551 
-2.35403 -2.26815 -2.11391 -1.8606 -1.47417 -0.925621 
-0.205121 0.660668 1.59552 2.47627 3.15939 3.52695 
3.53088 3.20961 2.66595 2.02067 1.36861 0.757724 
0.189908 -0.351297 -0.937278 2.28521 1.76324 1.38025 1.29907 1.3587 1.42437 
1.42594 1.33908 1.15999 0.89686 0.565955 0.187954 
-0.214417 -0.617735 -0.999699 -1.34185 -1.63205 -1.86546 
-2.04389 -2.17387 -2.26448 -2.32541 -2.36567 -2.39291 
-2.41316 -2.43089 -2.44916 -2.46959 -2.4922 -2.51468 
-2.53127 -2.53081 -2.49431 -2.39257 -2.18519 -1.82379 
-1.26267 -0.478855 0.501409 1.5819 2.5999 3.367 
3.73747 3.66787 3.22911 2.56326 1.8155 1.08291 
0.397213 -0.252448 -0.934368 3.0332 2.17522 1.5588 1.37116 1.37863 1.39867 
1.34418 1.19139 0.942572 0.61252 0.223263 -0.199315 
-0.627602 -1.03466 -1.3976 -1.70095 -1.93829 -2.1117 
-2.22938 -2.30272 -2.34377 -2.36345 -2.37072 -2.37243 
-2.37353 -2.3776 -2.38722 -2.40435 -2.43036 -2.4658 
-2.50958 -2.55736 -2.59887 -2.61412 -2.56911 -2.41288 
-2.08016 -1.5049 -0.648875 0.459101 1.6926 2.8356 
3.64723 3.96103 3.75764 3.1591 2.35158 1.49506 
0.670721 -0.113655 -0.915572 3.82538 2.60627 1.73569 1.43018 1.37899 1.34913 
1.23676 1.01961 0.706462 0.318747 -0.115472 -0.564852 
-0.997661 -1.38578 -1.70904 -1.958 -2.13383 -2.24577 
-2.30741 -2.33326 -2.33637 -2.32709 -2.3129 -2.2988 
-2.288 -2.28256 -2.28403 -2.29391 -2.31387 -2.34589 
-2.39192 -2.45298 -2.52717 -2.60619 -2.66981 -2.67907 
-2.57067 -2.25872 -1.65279 -0.699148 0.562304 1.95705 
3.19776 3.98855 4.1625 3.75506 2.95757 1.99494 
1.01898 0.0756554 -0.869104 4.62992 3.04656 1.91157 1.4788 1.36327 1.28107 
1.11146 0.834064 0.464231 0.0301198 -0.434138 -0.892365 
-1.31068 -1.66279 -1.93425 -2.12351 -2.23962 -2.2979 
-2.31547 -2.30791 -2.28744 -2.26258 -2.23856 -2.21823 
-2.2029 -2.19319 -2.1895 -2.19255 -2.20363 -2.22489 
-2.25942 -2.31107 -2.38351 -2.47801 -2.58885 -2.69573 
-2.7535 -2.68293 -2.37197 -1.70159 -0.606445 0.844268 
2.39961 3.68185 4.35167 4.28198 3.60147 2.5781 
1.45029 0.327573 -0.7815 5.41315 3.48602 2.0878 1.52044 1.33563 1.20026 
0.976154 0.644505 0.22713 -0.241219 -0.72084 -1.17221 
-1.56185 -1.86812 -2.08416 -2.21678 -2.28189 -2.29904 
-2.28678 -2.25994 -2.22872 -2.19914 -2.17409 -2.15443 
-2.13998 -2.1302 -2.12466 -2.12335 -2.12691 -2.13695 
-2.15631 -2.1894 -2.24215 -2.32129 -2.43171 -2.5706 
-2.71683 -2.81601 -2.76667 -2.42255 -1.63296 -0.333809 
1.34263 3.02992 4.25023 4.66066 4.23635 3.23159 
1.97077 0.654593 -0.638585 6.14218 3.91454 2.26601 1.559 1.30056 1.1125 
0.838183 0.459527 0.00436816 -0.486403 -0.968585 -1.4013 
-1.75389 -2.01129 -2.17493 -2.25916 -2.28505 -2.2743 
-2.2451 -2.2103 -2.17749 -2.15018 -2.12919 -2.11389 
-2.10312 -2.09568 -2.09067 -2.0876 -2.08656 -2.08839 
-2.09503 -2.11004 -2.13911 -2.1905 -2.27436 -2.39968 
-2.56644 -2.75058 -2.88247 -2.82794 -2.39601 -1.40671 
0.172335 2.09023 3.8234 4.81545 4.80156 3.93042 
2.58144 1.06831 -0.425648 6.78721 4.32211 2.44769 1.59862 1.26262 1.02318 
0.703982 0.286134 -0.197282 -0.700067 -1.17495 -1.58168 
-1.89426 -2.10505 -2.22334 -2.26957 -2.26802 -2.24077 
-2.2044 -2.16918 -2.14006 -2.11837 -2.10336 -2.09349 
-2.08708 -2.08272 -2.07938 -2.07638 -2.07345 -2.0708 
-2.06938 -2.07137 -2.08095 -2.10524 -2.15518 -2.24499 
-2.3883 -2.58701 -2.80962 -2.96043 -2.8564 -2.25141 
-0.953863 0.975639 3.09079 4.69279 5.23043 4.63652 
3.27543 1.57801 -0.12748 7.32344 4.6989 2.63376 1.6434 1.22623 0.937106 
0.578824 0.129571 -0.3735 -0.879989 -1.34107 -1.71868 
-1.99252 -2.1623 -2.24402 -2.26249 -2.24349 -2.20823 
-2.17102 -2.13947 -2.11622 -2.10089 -2.09173 -2.08672 
-2.08409 -2.08249 -2.08098 -2.07893 -2.07592 -2.07176 
-2.06663 -2.06144 -2.0585 -2.0627 -2.08299 -2.13371 
-2.23424 -2.40325 -2.64217 -2.9029 -3.04516 -2.81502 
-1.90941 -0.17723 2.1237 4.27632 5.4628 5.30181 
4.03653 2.18932 0.27114 7.73226 5.03548 2.8243 1.69725 1.19558 0.858355 
0.466759 -0.00662485 -0.522122 -1.02638 -1.47032 -1.8191 
-2.05832 -2.19425 -2.24819 -2.24772 -2.21883 -2.18114 
-2.14651 -2.1202 -2.10296 -2.09326 -2.08879 -2.08741 
-2.08746 -2.08783 -2.08778 -2.08684 -2.08462 -2.08075 
-2.07493 -2.06716 -2.05819 -2.05054 -2.05016 -2.06855 
-2.12488 -2.24513 -2.45282 -2.74285 -3.03306 -3.10901 
-2.62291 -1.24339 1.02617 3.59176 5.45781 5.87476 
4.83954 2.90295 0.784387 8.00192 5.32308 3.01824 1.76366 1.17457 0.790277 
0.370662 -0.120411 -0.642658 -1.14102 -1.56715 -1.88981 
-2.10008 -2.20968 -2.2437 -2.23121 -2.19761 -2.16065 
-2.12997 -2.10887 -2.09676 -2.09138 -2.09019 -2.09112 
-2.09276 -2.09426 -2.09514 -2.0951 -2.09387 -2.09106 
-2.08619 -2.07869 -2.06827 -2.05555 -2.04355 -2.03992 
-2.06024 -2.13058 -2.28522 -2.55009 -2.89977 -3.18619 
-3.07974 -2.13446 -0.0910026 2.69962 5.20202 6.30858 
5.65238 3.71382 1.42402 8.12752 5.55381 3.2132 1.84546 1.16683 0.735594 
0.292411 -0.210922 -0.735756 -1.22652 -1.63615 -1.93693 
-2.12455 -2.21489 -2.23554 -2.21613 -2.18106 -2.1463 
-2.11964 -2.10293 -2.09469 -2.09226 -2.09308 -2.09527 
-2.09765 -2.09962 -2.10094 -2.10147 -2.10109 -2.09948 
-2.09614 -2.09028 -2.08099 -2.06767 -2.051 -2.03503 
-2.03052 -2.05945 -2.15786 -2.36919 -2.71319 -3.11491 
-3.3078 -2.80733 -1.13306 1.67986 4.71041 6.56857 
6.43973 4.61087 2.19802 8.11059 5.72105 3.40542 1.94464 1.17569 0.696546 
0.233088 -0.278145 -0.802717 -1.28567 -1.68145 -1.96538 
-2.13668 -2.21407 -2.22661 -2.20386 -2.16916 -2.13699 
-2.11376 -2.10034 -2.09472 -2.09409 -2.09597 -2.09867 
-2.10123 -2.10326 -2.10466 -2.10547 -2.10567 -2.10508 
-2.10325 -2.09938 -2.09233 -2.08077 -2.06387 -2.04278 
-2.02372 -2.0229 -2.07248 -2.22193 -2.52083 -2.9597 
-3.35777 -3.25906 -2.03438 0.614771 4.02071 6.63663 
7.16733 5.57765 3.10946 7.95837 5.81967 3.58983 2.06204 1.20417 0.675088 
0.193245 -0.322601 -0.84511 -1.32107 -1.70645 -1.97883 
-2.1398 -2.20977 -2.21836 -2.19478 -2.16139 -2.13161 
-2.11094 -2.09969 -2.09562 -2.09591 -2.09821 -2.10097 
-2.10341 -2.10528 -2.10658 -2.10746 -2.108 -2.10813 
-2.10753 -2.10549 -2.10083 -2.09195 -2.0771 -2.05546 
-2.02958 -2.00994 -2.02218 -2.11389 -2.34993 -2.77106 
-3.28574 -3.51447 -2.7613 -0.424511 3.18374 6.51181 
7.8061 6.59382 4.15589 7.68282 5.84642 3.76013 2.19713 1.25492 0.673057 
0.173122 -0.345116 -0.864508 -1.33487 -1.71359 -1.97966 
-2.13587 -2.20322 -2.21128 -2.18869 -2.1571 -2.12925 
-2.11025 -2.10018 -2.0968 -2.09737 -2.09965 -2.10224 
-2.10445 -2.10607 -2.10721 -2.10805 -2.10874 -2.10933 
-2.10962 -2.10903 -2.10648 -2.10032 -2.08836 -2.0686 
-2.04089 -2.01094 -1.99735 -2.04139 -2.21193 -2.58279 
-3.14198 -3.61256 -3.30738 -1.38529 2.25351 6.20749 
8.33485 7.63711 5.3293 7.2996 5.8001 3.90915 2.34771 1.33005 0.692353 
0.172931 -0.346584 -0.862333 -1.32872 -1.7045 -1.96923 
-2.12579 -2.19482 -2.20529 -2.18518 -2.15567 -2.1293 
-2.11115 -2.10143 -2.09804 -2.09841 -2.10042 -2.10272 
-2.10465 -2.10606 -2.10703 -2.10779 -2.10855 -2.10941 
-2.11029 -2.11076 -2.10988 -2.10606 -2.09701 -2.08004 
-2.05329 -2.0188 -1.98889 -1.99683 -2.10803 -2.41398 
-2.9656 -3.59566 -3.68532 -2.23485 1.27946 5.74644 
8.74138 8.68553 6.61683 6.82703 5.68175 4.02923 2.50974 1.43078 0.734954 
0.19301 -0.327865 -0.839794 -1.30372 -1.67995 -1.94787 
-2.10945 -2.18415 -2.19977 -2.1836 -2.15658 -2.13138 
-2.11344 -2.10338 -2.09943 -2.09921 -2.10073 -2.10265 
-2.10433 -2.10555 -2.10642 -2.10713 -2.10792 -2.10895 
-2.11021 -2.11141 -2.11175 -2.10978 -2.10323 -2.08911 
-2.06452 -2.02895 -1.98966 -1.972 -2.03396 -2.27273 
-2.7837 -3.50257 -3.91875 -2.958 0.301895 5.15553 
9.02176 9.71938 8.00196 6.28503 5.4948 4.1127 2.67719 1.5571 0.80292 
0.23411 -0.289565 -0.797855 -1.26058 -1.64015 -1.91527 
-2.08615 -2.17025 -2.19379 -2.1832 -2.15932 -2.13526 
-2.11713 -2.10621 -2.10122 -2.10007 -2.10088 -2.10234 
-2.10374 -2.10482 -2.10563 -2.10634 -2.10718 -2.10835 
-2.10988 -2.11158 -2.11277 -2.11215 -2.10752 -2.09584 
-2.07363 -2.03872 -1.9946 -1.95975 -1.98327 -2.16008 
-2.61289 -3.36515 -4.03553 -3.55285 -0.649462 4.46131 
9.17849 10.7227 9.46621 5.6942 5.24503 4.15258 2.84213 1.70721 0.898037 
0.297381 -0.232008 -0.737264 -1.19959 -1.58465 -1.8703 
-2.05432 -2.15148 -2.18589 -2.1829 -2.16326 -2.14072 
-2.12232 -2.11023 -2.10381 -2.1014 -2.10126 -2.10211 
-2.10317 -2.10411 -2.1049 -2.10566 -2.10661 -2.10791 
-2.10967 -2.11171 -2.11347 -2.11373 -2.11044 -2.10056 
-2.08038 -2.04672 -2.00043 -1.9545 -1.94939 -2.07309 
-2.46177 -3.20752 -4.06334 -4.02626 -1.55487 3.68695 
9.21807 11.684 10.991 5.07489 4.94043 4.14321 2.995 1.87706 1.02149 
0.384553 -0.154918 -0.658499 -1.12096 -1.5129 -1.81165 
-2.01213 -2.12583 -2.17424 -2.18128 -2.16753 -2.14742 
-2.12909 -2.11578 -2.10771 -2.10374 -2.10238 -2.10241 
-2.103 -2.10374 -2.1045 -2.10534 -2.10642 -2.1079 
-2.10985 -2.11214 -2.11421 -2.11496 -2.11241 -2.10362 
-2.08481 -2.05226 -2.00509 -1.95223 -1.92654 -2.00714 
-2.33346 -3.04672 -4.02709 -4.39 -2.40271 2.85059 
9.14847 12.5967 12.5594 4.44639 4.59099 4.08097 3.12524 2.0599 1.17294 
0.497451 -0.0575354 -0.561758 -1.02463 -1.42392 -1.73733 
-1.95691 -2.09042 -2.15617 -2.17622 -2.17068 -2.15458 
-2.13723 -2.12308 -2.11339 -2.10768 -2.10485 -2.10382 
-2.10375 -2.10416 -2.10482 -2.10572 -2.10694 -2.10858 
-2.11069 -2.11309 -2.11526 -2.11609 -2.11369 -2.10523 
-2.08696 -2.05494 -2.00729 -1.95009 -1.91009 -1.9573 
-2.22769 -2.89397 -3.94795 -4.65786 -3.18722 1.96487 
8.97693 13.4585 14.1578 3.82624 4.20824 3.96492 3.22221 2.24629 1.35 
0.637849 0.0617358 -0.446765 -0.910712 -1.31719 -1.64583 
-1.88628 -2.04233 -2.12869 -2.16505 -2.17065 -2.16086 
-2.14606 -2.132 -2.1211 -2.11373 -2.10931 -2.10701 
-2.10606 -2.10594 -2.10637 -2.10722 -2.1085 -2.11025 
-2.1124 -2.11475 -2.11671 -2.11717 -2.11429 -2.10534 
-2.08668 -2.05438 -2.0061 -1.94607 -1.8965 -1.91904 
-2.14243 -2.75614 -3.84324 -4.84386 -3.90629 1.03731 
8.70806 14.2709 15.7777 3.22961 3.80475 3.79722 3.27632 2.42425 1.54695 
0.806055 0.204643 -0.312726 -0.778901 -1.19178 -1.53506 
-1.79699 -1.97761 -2.08766 -2.14392 -2.16419 -2.1638 
-2.15396 -2.14168 -2.13058 -2.12204 -2.11618 -2.11253 
-2.11053 -2.10969 -2.10969 -2.11032 -2.11149 -2.11314 
-2.11511 -2.11709 -2.11843 -2.11798 -2.1139 -2.10357 
-2.08354 -2.05004 -2.00066 -1.93868 -1.88312 -1.88867 
-2.07502 -2.63712 -3.72683 -4.96122 -4.55943 0.0711124 
8.34233 15.0383 17.4161 2.66889 3.39351 3.58335 3.28045 2.5805 1.75483 
1.00052 0.373127 -0.158194 -0.62906 -1.04785 -1.40437 
-1.68717 -1.89318 -2.02918 -2.10858 -2.14724 -2.15987 
-2.15814 -2.15009 -2.14054 -2.13195 -2.12523 -2.12048 
-2.11744 -2.11575 -2.11509 -2.11525 -2.11602 -2.11724 
-2.11864 -2.11979 -2.11993 -2.11785 -2.11175 -2.09909 
-2.07666 -2.04103 -1.99002 -1.92667 -1.86806 -1.86339 
-2.02292 -2.53893 -3.60988 -5.02203 -5.14625 -0.933558 
7.87463 15.7672 19.0776 2.15341 2.98727 3.33192 3.23109 2.70164 1.96072 
1.21555 0.567313 0.018513 -0.460058 -0.884488 -1.25214 
-1.55388 -1.78479 -1.94798 -2.05331 -2.11407 -2.14377 
-2.154 -2.15349 -2.14809 -2.14132 -2.13499 -2.12986 
-2.12611 -2.12362 -2.12219 -2.1216 -2.12161 -2.12193 
-2.1222 -2.12184 -2.12003 -2.11548 -2.10641 -2.09042 
-2.06461 -2.026 -1.97299 -1.90893 -1.85005 -1.84144 
-1.9843 -2.46274 -3.50157 -5.03745 -5.66516 -1.97803 
7.29292 16.465 20.775 1.68956 2.59784 3.05427 3.12951 2.77678 2.15 
1.44209 0.785332 0.21865 -0.271228 -0.70243 -1.07944 
-1.39728 -1.65093 -1.84079 -1.97329 -2.05887 -2.10927 
-2.13541 -2.14622 -2.14827 -2.14595 -2.14197 -2.1378 
-2.13416 -2.13128 -2.12915 -2.12763 -2.12648 -2.12536 
-2.12381 -2.12117 -2.11651 -2.10853 -2.09551 -2.07526 
-2.04524 -2.00311 -1.94813 -1.88452 -1.82848 -1.82223 
-1.95851 -2.4097 -3.40988 -5.0183 -6.11257 -3.06307 
6.57659 17.1387 22.5317 1.28055 2.2364 2.76377 2.98191 2.79875 2.30665 
1.66551 1.02005 0.441485 -0.0607618 -0.499744 -0.8845 
-1.21507 -1.48811 -1.70262 -1.86216 -1.97422 -2.04831 
-2.09413 -2.12025 -2.13351 -2.13894 -2.13997 -2.13877 
-2.13663 -2.13422 -2.13181 -2.12942 -2.12686 -2.12381 
-2.11977 -2.11403 -2.10564 -2.09334 -2.07552 -2.05028 
-2.01561 -1.97 -1.9139 -1.85285 -1.8037 -1.80666 
-1.94659 -2.38179 -3.34234 -4.9761 -6.48271 -4.18601 
5.69443 17.7935 24.3853 0.927966 1.91126 2.4751 2.79989 2.76744 2.41883 
1.87064 1.26095 0.682656 0.169951 -0.278079 -0.670178 
-1.01045 -1.29849 -1.53353 -1.71741 -1.85511 -1.95384 
-2.02164 -2.0662 -2.09413 -2.11068 -2.11973 -2.12401 
-2.12531 -2.12475 -2.12291 -2.12006 -2.11614 -2.11093 
-2.10394 -2.09452 -2.08176 -2.06453 -2.04146 -2.01109 
-1.97211 -1.92415 -1.86917 -1.81443 -1.77779 -1.79791 
-1.95205 -2.3828 -3.30686 -4.92442 -6.76837 -5.3369 
4.6026 18.4258 26.3967 0.629636 1.63553 2.20514 2.59951 2.68876 2.47781 
2.03955 1.49112 0.932898 0.419295 -0.0348484 -0.432797 
-0.779959 -1.07871 -1.32965 -1.53401 -1.69499 -1.8177 
-1.90834 -1.97333 -2.01861 -2.04923 -2.06923 -2.08162 
-2.08861 -2.09167 -2.09172 -2.08929 -2.08453 -2.07737 
-2.06746 -2.05429 -2.03709 -2.01503 -1.98712 -1.9526 
-1.91112 -1.86384 -1.81445 -1.77225 -1.756 -1.80282 
-1.98209 -2.41973 -3.31275 -4.8806 -6.96354 -6.493 
3.24209 19.0208 28.6633 0.391013 1.40859 1.97005 2.40151 2.57838 2.48709 
2.1632 1.69527 1.17765 0.676503 0.222104 -0.179297 
-0.530657 -0.835646 -1.09656 -1.31519 -1.49406 -1.63681 
-1.74804 -1.83281 -1.89604 -1.9422 -1.97508 -1.99772 
-2.01245 -2.021 -2.02453 -2.02385 -2.0193 -2.01108 
-1.999 -1.98289 -1.96223 -1.93678 -1.90609 -1.87057 
-1.83104 -1.79067 -1.7548 -1.73489 -1.74965 -1.83453 
-2.04976 -2.50491 -3.37237 -4.86768 -7.06861 -7.61296 
1.5415 19.5102 31.3594 0.20204 1.27885 1.79766 2.23089 2.45586 2.45298 
2.23293 1.85604 1.40042 0.932482 0.492095 0.0953133 
-0.255401 -0.562392 -0.828499 -1.05613 -1.24765 -1.40589 
-1.53424 -1.6365 -1.71653 -1.77808 -1.82439 -1.85837 
-1.8822 -1.89779 -1.90636 -1.90904 -1.90627 -1.89875 
-1.88636 -1.86975 -1.84853 -1.82383 -1.79557 -1.76639 
-1.73768 -1.71572 -1.70587 -1.72251 -1.78128 -1.91716 
-2.17761 -2.65972 -3.50389 -4.91636 -7.09972 -8.63086 
-0.579072 19.7884 34.7605 0.144719 1.17866 1.68864 2.10629 2.3465 2.39922 
2.26077 1.96926 1.58406 1.16404 0.751741 0.370188 
0.0278782 -0.2744 -0.538683 -0.767616 -0.963763 -1.12979 
-1.26839 -1.3826 -1.47523 -1.54939 -1.60748 -1.65226 
-1.68531 -1.70897 -1.72386 -1.73215 -1.73357 -1.73049 
-1.72189 -1.71101 -1.69619 -1.6824 -1.66767 -1.65999 
-1.65745 -1.67313 -1.70606 -1.77852 -1.89371 -2.09469 
-2.40357 -2.92164 -3.7355 -5.06892 -7.0982 -9.46758 
-3.15663 19.45 39.4204 0.0822659 1.40264 1.72785 2.0608 2.26958 2.33459 
2.24704 2.02912 1.72035 1.36528 1.00101 0.651942 
0.330677 0.041783 -0.214342 -0.439238 -0.634772 -0.803395 
-0.946988 -1.06844 -1.1693 -1.25299 -1.32027 -1.37514 
-1.41706 -1.45095 -1.47449 -1.49418 -1.50547 -1.51742 
-1.52267 -1.53416 -1.54081 -1.56123 -1.57925 -1.62161 
-1.66494 -1.74807 -1.83744 -1.9914 -2.16326 -2.4482 
-2.78805 -3.35988 -4.1078 -5.39194 -7.1325 -10.0617 
-6.15086 18.136 45.9273 0.94351 1.32722 1.67961 2.0033 2.2021 2.27413 
2.2143 2.04555 1.79838 1.50598 1.19721 0.893261 
0.607126 0.345128 0.109637 -0.100003 -0.284443 -0.446687 
-0.586993 -0.710001 -0.814172 -0.906576 -0.982614 -1.05316 
-1.10891 -1.16645 -1.20958 -1.26321 -1.30126 -1.36049 
-1.40095 -1.476 -1.52626 -1.62838 -1.69569 -1.83785 
-1.92946 -2.12837 -2.25321 -2.53561 -2.71144 -3.1336 
-3.41187 -4.11715 -4.65629 -6.03069 -7.24098 -10.541 
-9.10745 13.9479 56.07 0.0556193 2.53222 2.08125 2.03999 2.0991 2.12323 
2.07258 1.95009 1.76978 1.55123 1.31244 1.06843 
0.829869 0.602984 0.391933 0.196392 0.0188283 -0.146226 
-0.293602 -0.435201 -0.558923 -0.686619 -0.793968 -0.918319 
-1.01591 -1.14765 -1.24039 -1.39002 -1.48035 -1.65825 
-1.74561 -1.96269 -2.04303 -2.31196 -2.3772 -2.7147 
-2.75211 -3.18365 -3.1755 -3.74559 -3.67077 -4.46694 
-4.30986 -5.52088 -5.30516 -7.36792 -7.25877 -11.4484 
-11.2496 6.9443 68.3336 9.12987 2.176 1.07435 1.24348 1.3216 1.31039 
1.23937 1.13099 0.990262 0.82699 0.646479 0.454928 
0.25722 0.0557407 -0.145063 -0.349201 -0.547774 -0.755534 
-0.95079 -1.16703 -1.3578 -1.58857 -1.77102 -2.02294 
-2.18937 -2.47043 -2.60867 -2.93013 -3.02281 -3.40167 
-3.4248 -3.88703 -3.80735 -4.39236 -4.16307 -4.93046 
-4.48465 -5.52547 -4.76638 -6.22307 -5.00993 -7.11368 
-5.24297 -8.38759 -5.57767 -10.4741 -6.40605 -14.5045 
-10.2394 -10.5141 92.0726 -11.3948 -0.641747 -0.594636 -1.58414 -2.41503 -3.13487 
-3.73091 -4.17091 -4.49558 -4.73439 -4.92095 -5.08077 
-5.22764 -5.37763 -5.5246 -5.68905 -5.84049 -6.02271 
-6.16698 -6.36499 -6.48421 -6.69911 -6.77278 -7.01359 
-7.01848 -7.30563 -7.21304 -7.5818 -7.35237 -7.85766 
-7.4335 -8.15747 -7.45068 -8.51521 -7.391 -8.97781 
-7.22925 -9.61225 -6.92193 -10.5192 -6.4017 -11.8595 
-5.5771 -13.9064 -4.35914 -17.1687 -2.84216 -22.8958 
-3.67232 -30.489 86.8169 70.3354 6.86415 -12.8042 -17.538 -21.4394 -23.4907 
-24.6254 -25.0872 -25.0987 -24.8051 -24.3044 -23.6786 
-22.9655 -22.2234 -21.446 -20.6961 -19.9228 -19.2199 
-18.4783 -17.8541 -17.1512 -16.6299 -15.9605 -15.5672 
-14.9145 -14.6805 -14.0136 -13.9821 -13.2503 -13.4843 
-12.6076 -13.2029 -12.0569 -13.1616 -11.5537 -13.401 
-11.0315 -13.9926 -10.3919 -15.0669 -9.49203 -16.8692 
-8.12865 -19.8847 -6.0292 -25.1585 -2.93249 -35.3569 
-0.259078 -59.2315 144.777 -183.81 -145.051 -122.482 -105.138 -92.3453 -82.4579 
-74.5937 -68.1678 -62.7194 -57.9582 -53.6789 -49.752 
-46.1044 -42.6908 -39.5018 -36.5218 -33.7687 -31.2248 
-28.9214 -26.8209 -24.97 -23.2991 -21.8816 -20.6033 
-19.5841 -18.6453 -17.9824 -17.3215 -16.9761 -16.5273 
-16.4707 -16.1653 -16.3859 -16.1499 -16.6627 -16.4136 
-17.2763 -16.9205 -18.2659 -17.7025 -19.8038 -18.9463 
-22.3487 -21.1929 -26.9669 -25.8069 -35.9124 -36.641 
-53.7145 -79.645 -171.631 