# vtk DataFile Version 2.0 
Lid_driven streamfuntion-vorticity 
ASCII 
DATASET RECTILINEAR_GRID 
DIMENSIONS 60 60 1
X_COORDINATES 60 float 
0 
0.0169492 0.0338983 0.0508475 0.0677966 0.0847458 0.101695 
0.118644 0.135593 0.152542 0.169492 0.186441 0.20339 
0.220339 0.237288 0.254237 0.271186 0.288136 0.305085 
0.322034 0.338983 0.355932 0.372881 0.389831 0.40678 
0.423729 0.440678 0.457627 0.474576 0.491525 0.508475 
0.525424 0.542373 0.559322 0.576271 0.59322 0.610169 
0.627119 0.644068 0.661017 0.677966 0.694915 0.711864 
0.728814 0.745763 0.762712 0.779661 0.79661 0.813559 
0.830508 0.847458 0.864407 0.881356 0.898305 0.915254 
0.932203 0.949153 0.966102 0.983051 1 
Y_COORDINATES 60 float 
0 
0.0169492 0.0338983 0.0508475 0.0677966 0.0847458 0.101695 
0.118644 0.135593 0.152542 0.169492 0.186441 0.20339 
0.220339 0.237288 0.254237 0.271186 0.288136 0.305085 
0.322034 0.338983 0.355932 0.372881 0.389831 0.40678 
0.423729 0.440678 0.457627 0.474576 0.491525 0.508475 
0.525424 0.542373 0.559322 0.576271 0.59322 0.610169 
0.627119 0.644068 0.661017 0.677966 0.694915 0.711864 
0.728814 0.745763 0.762712 0.779661 0.79661 0.813559 
0.830508 0.847458 0.864407 0.881356 0.898305 0.915254 
0.932203 0.949153 0.966102 0.983051 1 
Z_COORDINATES 1 float 
0 

POINT_DATA 3600
SCALARS streamfunction float
LOOKUP_TABLE default 
-6.34994e+13 5.72998e+20 -1.66582e+19 -1.75745e+20 1.08604e+19 5.876e+19 
-5.1289e+18 -1.6801e+19 2.56038e+18 8.54467e+18 -6.31974e+17 6.97369e+17 
8.33842e+17 3.59128e+18 4.60539e+17 2.86673e+18 8.46262e+17 3.22712e+18 
9.80578e+17 3.14896e+18 1.24192e+18 3.13616e+18 1.48163e+18 3.03183e+18 
1.74557e+18 2.89447e+18 2.00599e+18 2.71279e+18 2.26118e+18 2.49957e+18 
2.49958e+18 2.26117e+18 2.71277e+18 2.00597e+18 2.89445e+18 1.74555e+18 
3.03177e+18 1.48159e+18 3.13607e+18 1.24183e+18 3.14895e+18 9.80514e+17 
3.22709e+18 8.46171e+17 2.86675e+18 4.60413e+17 3.59151e+18 8.33754e+17 
6.97659e+17 -6.32079e+17 8.54535e+18 2.56046e+18 -1.68013e+19 -5.1289e+18 
5.87594e+19 1.08604e+19 -1.75742e+20 -1.66573e+19 5.72951e+20 -1.58832e+14 
5.73001e+20 2.23349e+21 2.99289e+21 3.86316e+21 4.87324e+21 5.73368e+21 
6.45708e+21 7.15797e+21 7.83957e+21 8.47112e+21 9.05694e+21 9.61208e+21 
1.0137e+22 1.063e+22 1.1092e+22 1.15259e+22 1.19314e+22 1.23092e+22 
1.2659e+22 1.29815e+22 1.3276e+22 1.35428e+22 1.37812e+22 1.39911e+22 
1.41719e+22 1.43235e+22 1.44451e+22 1.45367e+22 1.45979e+22 1.46286e+22 
1.46286e+22 1.45979e+22 1.45367e+22 1.44451e+22 1.43235e+22 1.41719e+22 
1.39911e+22 1.37812e+22 1.35428e+22 1.3276e+22 1.29815e+22 1.2659e+22 
1.23093e+22 1.19314e+22 1.15259e+22 1.10921e+22 1.06301e+22 1.01371e+22 
9.61216e+21 9.05699e+21 8.4711e+21 7.83944e+21 7.15769e+21 6.4566e+21 
5.73296e+21 4.87226e+21 3.86199e+21 2.99181e+21 2.23284e+21 5.72955e+20 
-1.66583e+19 2.99287e+21 5.41226e+21 7.52292e+21 9.47699e+21 1.12575e+22 
1.28779e+22 1.43855e+22 1.58071e+22 1.71354e+22 1.83825e+22 1.9552e+22 
2.06564e+22 2.16906e+22 2.26648e+22 2.3574e+22 2.44274e+22 2.52184e+22 
2.59548e+22 2.66299e+22 2.72501e+22 2.78086e+22 2.83108e+22 2.87504e+22 
2.91315e+22 2.94489e+22 2.97054e+22 2.98974e+22 3.00265e+22 3.00908e+22 
3.00908e+22 3.00265e+22 2.98974e+22 2.97054e+22 2.94489e+22 2.91315e+22 
2.87504e+22 2.83107e+22 2.78086e+22 2.72501e+22 2.66299e+22 2.59549e+22 
2.52185e+22 2.44275e+22 2.35741e+22 2.26648e+22 2.16907e+22 2.06566e+22 
1.95521e+22 1.83826e+22 1.71354e+22 1.58069e+22 1.43851e+22 1.28772e+22 
1.12563e+22 9.47532e+21 7.52085e+21 5.41031e+21 2.99178e+21 -1.66575e+19 
-1.75746e+20 3.8631e+21 7.52286e+21 1.07667e+22 1.36905e+22 1.63758e+22 
1.88599e+22 2.11693e+22 2.33304e+22 2.53553e+22 2.72574e+22 2.9044e+22 
3.07256e+22 3.23045e+22 3.37884e+22 3.51777e+22 3.64777e+22 3.76867e+22 
3.88088e+22 3.98416e+22 4.07871e+22 4.1642e+22 4.2408e+22 4.30816e+22 
4.36633e+22 4.41497e+22 4.45414e+22 4.4836e+22 4.50332e+22 4.51316e+22 
4.51316e+22 4.50332e+22 4.4836e+22 4.45414e+22 4.41497e+22 4.36633e+22 
4.30816e+22 4.2408e+22 4.1642e+22 4.07871e+22 3.98416e+22 3.88088e+22 
3.76867e+22 3.64777e+22 3.51777e+22 3.37885e+22 3.23046e+22 3.07257e+22 
2.9044e+22 2.72574e+22 2.53553e+22 2.33303e+22 2.11689e+22 1.88593e+22 
1.63748e+22 1.36888e+22 1.07646e+22 7.52078e+21 3.86193e+21 -1.75744e+20 
1.08604e+19 4.87316e+21 9.47689e+21 1.36904e+22 1.75274e+22 2.10689e+22 
2.43637e+22 2.74376e+22 3.0314e+22 3.30132e+22 3.55501e+22 3.79367e+22 
4.01818e+22 4.22931e+22 4.42763e+22 4.61361e+22 4.7875e+22 4.94953e+22 
5.09978e+22 5.23833e+22 5.36506e+22 5.47989e+22 5.58265e+22 5.67322e+22 
5.75132e+22 5.81677e+22 5.86939e+22 5.90905e+22 5.93556e+22 5.94882e+22 
5.94882e+22 5.93556e+22 5.90905e+22 5.86939e+22 5.81676e+22 5.75132e+22 
5.67322e+22 5.58265e+22 5.47988e+22 5.36506e+22 5.23833e+22 5.09978e+22 
4.94952e+22 4.7875e+22 4.61361e+22 4.42762e+22 4.22931e+22 4.01818e+22 
3.79366e+22 3.555e+22 3.30131e+22 3.03138e+22 2.74373e+22 2.43633e+22 
2.10682e+22 1.75262e+22 1.36888e+22 9.47518e+21 4.87216e+21 1.08604e+19 
5.876e+19 5.73359e+21 1.12574e+22 1.63758e+22 2.10689e+22 2.5425e+22 
2.94963e+22 3.33056e+22 3.68769e+22 4.02331e+22 4.33916e+22 4.63653e+22 
4.91654e+22 5.18006e+22 5.4278e+22 5.66024e+22 5.87777e+22 6.0806e+22 
6.26885e+22 6.44251e+22 6.6015e+22 6.74566e+22 6.87478e+22 6.98859e+22 
7.08682e+22 7.16919e+22 7.23545e+22 7.28537e+22 7.31876e+22 7.33548e+22 
7.33548e+22 7.31876e+22 7.28537e+22 7.23545e+22 7.16919e+22 7.08682e+22 
6.98859e+22 6.87478e+22 6.74566e+22 6.6015e+22 6.44251e+22 6.26884e+22 
6.08059e+22 5.87776e+22 5.66024e+22 5.42779e+22 5.18006e+22 4.91652e+22 
4.63651e+22 4.33914e+22 4.02329e+22 3.68767e+22 3.33053e+22 2.9496e+22 
2.54246e+22 2.10682e+22 1.63747e+22 1.12562e+22 5.73283e+21 5.87595e+19 
-5.12891e+18 6.45697e+21 1.28778e+22 1.88599e+22 2.43638e+22 2.94963e+22 
3.43127e+22 3.88311e+22 4.30763e+22 4.70725e+22 5.08385e+22 5.43879e+22 
5.77339e+22 6.0886e+22 6.38523e+22 6.66375e+22 6.92469e+22 7.16821e+22 
7.39447e+22 7.60334e+22 7.79478e+22 7.9685e+22 8.12424e+22 8.26159e+22 
8.38026e+22 8.47983e+22 8.55997e+22 8.62034e+22 8.66075e+22 8.68101e+22 
8.68101e+22 8.66075e+22 8.62034e+22 8.55997e+22 8.47983e+22 8.38025e+22 
8.26159e+22 8.12424e+22 7.9685e+22 7.79477e+22 7.60334e+22 7.39447e+22 
7.16821e+22 6.92468e+22 6.66375e+22 6.38522e+22 6.08859e+22 5.77338e+22 
5.43877e+22 5.08383e+22 4.70722e+22 4.30761e+22 3.88308e+22 3.43124e+22 
2.9496e+22 2.43634e+22 1.88592e+22 1.2877e+22 6.45645e+21 -5.12893e+18 
-1.68013e+19 7.15784e+21 1.43853e+22 2.11692e+22 2.74376e+22 3.33055e+22 
3.88311e+22 4.40294e+22 4.89236e+22 5.35387e+22 5.78944e+22 6.20055e+22 
6.58856e+22 6.95452e+22 7.29929e+22 7.62342e+22 7.92742e+22 8.21149e+22 
8.4757e+22 8.71991e+22 8.94397e+22 9.14755e+22 9.33022e+22 9.4915e+22 
9.63096e+22 9.74807e+22 9.84239e+22 9.91348e+22 9.96108e+22 9.98495e+22 
9.98495e+22 9.96108e+22 9.91348e+22 9.84239e+22 9.74807e+22 9.63095e+22 
9.4915e+22 9.33022e+22 9.14754e+22 8.94397e+22 8.7199e+22 8.47569e+22 
8.21149e+22 7.92742e+22 7.62342e+22 7.29928e+22 6.95451e+22 6.58855e+22 
6.20053e+22 5.78942e+22 5.35384e+22 4.89233e+22 4.40291e+22 3.88307e+22 
3.33053e+22 2.74373e+22 2.11688e+22 1.43849e+22 7.15752e+21 -1.68018e+19 
2.5604e+18 7.83943e+21 1.58069e+22 2.33303e+22 3.0314e+22 3.68768e+22 
4.30762e+22 4.89236e+22 5.44403e+22 5.96518e+22 6.45785e+22 6.92355e+22 
7.36371e+22 7.77941e+22 8.17157e+22 8.5408e+22 8.88755e+22 9.21202e+22 
9.51422e+22 9.79396e+22 1.0051e+23 1.02848e+23 1.04949e+23 1.06806e+23 
1.08413e+23 1.09764e+23 1.10853e+23 1.11675e+23 1.12225e+23 1.12501e+23 
1.12501e+23 1.12225e+23 1.11675e+23 1.10853e+23 1.09764e+23 1.08413e+23 
1.06806e+23 1.04949e+23 1.02848e+23 1.0051e+23 9.79396e+22 9.51422e+22 
9.21202e+22 8.88755e+22 8.54079e+22 8.17157e+22 7.7794e+22 7.3637e+22 
6.92354e+22 6.45783e+22 5.96516e+22 5.44401e+22 4.89232e+22 4.30759e+22 
3.68765e+22 3.03138e+22 2.33301e+22 1.58067e+22 7.83927e+21 2.5605e+18 
8.54444e+18 8.47099e+21 1.71352e+22 2.53552e+22 3.30132e+22 4.02331e+22 
4.70724e+22 5.35387e+22 5.96519e+22 6.54376e+22 7.09164e+22 7.61037e+22 
8.10141e+22 8.56589e+22 9.00475e+22 9.41862e+22 9.8079e+22 1.01728e+23 
1.05131e+23 1.08288e+23 1.11192e+23 1.13839e+23 1.1622e+23 1.18328e+23 
1.20155e+23 1.21692e+23 1.22933e+23 1.23869e+23 1.24496e+23 1.24811e+23 
1.24811e+23 1.24496e+23 1.23869e+23 1.22933e+23 1.21692e+23 1.20155e+23 
1.18328e+23 1.1622e+23 1.13839e+23 1.11192e+23 1.08288e+23 1.05131e+23 
1.01727e+23 9.8079e+22 9.41861e+22 9.00474e+22 8.56588e+22 8.1014e+22 
7.61036e+22 7.09163e+22 6.54374e+22 5.96517e+22 5.35384e+22 4.70721e+22 
4.02329e+22 3.30131e+22 2.53552e+22 1.71352e+22 8.47094e+21 8.5451e+18 
-6.31946e+17 9.05681e+21 1.83824e+22 2.72574e+22 3.55501e+22 4.33915e+22 
5.08384e+22 5.78945e+22 6.45786e+22 7.09164e+22 7.69286e+22 8.26307e+22 
8.80374e+22 9.31606e+22 9.80097e+22 1.02591e+23 1.06908e+23 1.10961e+23 
1.1475e+23 1.18271e+23 1.21516e+23 1.24479e+23 1.27149e+23 1.29517e+23 
1.31571e+23 1.33302e+23 1.34701e+23 1.35757e+23 1.36465e+23 1.36821e+23 
1.36821e+23 1.36465e+23 1.35757e+23 1.34701e+23 1.33302e+23 1.31571e+23 
1.29516e+23 1.27149e+23 1.24479e+23 1.21516e+23 1.18271e+23 1.1475e+23 
1.10961e+23 1.06908e+23 1.02591e+23 9.80096e+22 9.31605e+22 8.80373e+22 
8.26306e+22 7.69285e+22 7.09163e+22 6.45784e+22 5.78943e+22 5.08382e+22 
4.33914e+22 3.555e+22 2.72574e+22 1.83824e+22 9.05683e+21 -6.32043e+17 
6.97196e+17 9.61194e+21 1.95518e+22 2.90439e+22 3.79367e+22 4.63652e+22 
5.43878e+22 6.20054e+22 6.92356e+22 7.61037e+22 8.26306e+22 8.8832e+22 
9.47229e+22 1.00315e+23 1.05619e+23 1.10639e+23 1.15379e+23 1.19841e+23 
1.2402e+23 1.27912e+23 1.31506e+23 1.34794e+23 1.37763e+23 1.404e+23 
1.42693e+23 1.44627e+23 1.46191e+23 1.47375e+23 1.48168e+23 1.48566e+23 
1.48566e+23 1.48168e+23 1.47374e+23 1.46191e+23 1.44627e+23 1.42693e+23 
1.404e+23 1.37762e+23 1.34794e+23 1.31506e+23 1.27912e+23 1.2402e+23 
1.19841e+23 1.15379e+23 1.10639e+23 1.05619e+23 1.00315e+23 9.47228e+22 
8.88319e+22 8.26305e+22 7.61036e+22 6.92354e+22 6.20053e+22 5.43876e+22 
4.6365e+22 3.79366e+22 2.90439e+22 1.95519e+22 9.612e+21 6.9747e+17 
8.33851e+17 1.01369e+22 2.06562e+22 3.07255e+22 4.01818e+22 4.91652e+22 
5.77338e+22 6.58855e+22 7.36371e+22 8.1014e+22 8.80373e+22 9.47229e+22 
1.01086e+23 1.07139e+23 1.12891e+23 1.18348e+23 1.23514e+23 1.28386e+23 
1.32962e+23 1.37231e+23 1.41184e+23 1.44808e+23 1.48088e+23 1.51008e+23 
1.5355e+23 1.55698e+23 1.57438e+23 1.58755e+23 1.59639e+23 1.60083e+23 
1.60083e+23 1.59639e+23 1.58755e+23 1.57437e+23 1.55698e+23 1.5355e+23 
1.51008e+23 1.48088e+23 1.44808e+23 1.41184e+23 1.37231e+23 1.32962e+23 
1.28386e+23 1.23513e+23 1.18348e+23 1.12891e+23 1.07139e+23 1.01086e+23 
9.47228e+22 8.80372e+22 8.10138e+22 7.36369e+22 6.58854e+22 5.77336e+22 
4.91651e+22 4.01817e+22 3.07255e+22 2.06563e+22 1.01369e+22 8.33781e+17 
3.59107e+18 1.06299e+22 2.16904e+22 3.23044e+22 4.22931e+22 5.18006e+22 
6.08859e+22 6.95452e+22 7.77942e+22 8.56589e+22 9.31606e+22 1.00315e+23 
1.07139e+23 1.13644e+23 1.19839e+23 1.25732e+23 1.31324e+23 1.36613e+23 
1.4159e+23 1.46245e+23 1.50568e+23 1.54543e+23 1.58148e+23 1.61363e+23 
1.64168e+23 1.66542e+23 1.68467e+23 1.69926e+23 1.70907e+23 1.71399e+23 
1.71399e+23 1.70907e+23 1.69926e+23 1.68467e+23 1.66542e+23 1.64168e+23 
1.61363e+23 1.58148e+23 1.54543e+23 1.50568e+23 1.46245e+23 1.4159e+23 
1.36613e+23 1.31324e+23 1.25732e+23 1.19839e+23 1.13644e+23 1.07139e+23 
1.00315e+23 9.31605e+22 8.56588e+22 7.77941e+22 6.95451e+22 6.08858e+22 
5.18005e+22 4.2293e+22 3.23045e+22 2.16905e+22 1.063e+22 3.59135e+18 
4.60557e+17 1.10919e+22 2.26646e+22 3.37884e+22 4.42763e+22 5.4278e+22 
6.38522e+22 7.29929e+22 8.17158e+22 9.00475e+22 9.80097e+22 1.05619e+23 
1.12891e+23 1.1984e+23 1.26475e+23 1.32802e+23 1.38821e+23 1.44528e+23 
1.49914e+23 1.54968e+23 1.59674e+23 1.64013e+23 1.67956e+23 1.7148e+23 
1.74561e+23 1.77175e+23 1.79297e+23 1.80907e+23 1.81989e+23 1.82534e+23 
1.82534e+23 1.81989e+23 1.80907e+23 1.79297e+23 1.77175e+23 1.74561e+23 
1.7148e+23 1.67956e+23 1.64013e+23 1.59674e+23 1.54968e+23 1.49914e+23 
1.44528e+23 1.38821e+23 1.32802e+23 1.26475e+23 1.19839e+23 1.12891e+23 
1.05619e+23 9.80096e+22 9.00474e+22 8.17157e+22 7.29929e+22 6.38521e+22 
5.42779e+22 4.42762e+22 3.37884e+22 2.26647e+22 1.10919e+22 4.60434e+17 
2.86653e+18 1.15257e+22 2.35738e+22 3.51776e+22 4.61361e+22 5.66024e+22 
6.66374e+22 7.62342e+22 8.5408e+22 9.41861e+22 1.02591e+23 1.10639e+23 
1.18348e+23 1.25732e+23 1.32802e+23 1.3956e+23 1.46007e+23 1.52135e+23 
1.5794e+23 1.63405e+23 1.68508e+23 1.73221e+23 1.77515e+23 1.81361e+23 
1.84732e+23 1.87597e+23 1.89925e+23 1.9169e+23 1.92878e+23 1.93477e+23 
1.93477e+23 1.92878e+23 1.9169e+23 1.89925e+23 1.87597e+23 1.84732e+23 
1.81361e+23 1.77515e+23 1.73221e+23 1.68508e+23 1.63405e+23 1.5794e+23 
1.52135e+23 1.46007e+23 1.3956e+23 1.32802e+23 1.25732e+23 1.18348e+23 
1.10639e+23 1.02591e+23 9.4186e+22 8.54079e+22 7.62341e+22 6.66373e+22 
5.66023e+22 4.6136e+22 3.51776e+22 2.35739e+22 1.15258e+22 2.8666e+18 
8.46296e+17 1.19313e+22 2.44273e+22 3.64776e+22 4.7875e+22 5.87776e+22 
6.92467e+22 7.92741e+22 8.88755e+22 9.80789e+22 1.06907e+23 1.15379e+23 
1.23514e+23 1.31324e+23 1.38821e+23 1.46007e+23 1.52881e+23 1.59438e+23 
1.65669e+23 1.71553e+23 1.7706e+23 1.82156e+23 1.86814e+23 1.90997e+23 
1.94665e+23 1.97782e+23 2.00315e+23 2.02239e+23 2.03533e+23 2.04186e+23 
2.04186e+23 2.03533e+23 2.02238e+23 2.00315e+23 1.97782e+23 1.94665e+23 
1.90997e+23 1.86814e+23 1.82156e+23 1.7706e+23 1.71553e+23 1.65669e+23 
1.59438e+23 1.52881e+23 1.46007e+23 1.38821e+23 1.31324e+23 1.23513e+23 
1.15379e+23 1.06907e+23 9.80788e+22 8.88754e+22 7.92741e+22 6.92466e+22 
5.87775e+22 4.78749e+22 3.64776e+22 2.44273e+22 1.19313e+22 8.46179e+17 
3.22693e+18 1.23091e+22 2.52183e+22 3.76866e+22 4.94952e+22 6.08059e+22 
7.16821e+22 8.21149e+22 9.21203e+22 1.01728e+23 1.10961e+23 1.19841e+23 
1.28387e+23 1.36613e+23 1.44528e+23 1.52135e+23 1.59439e+23 1.66431e+23 
1.73092e+23 1.79397e+23 1.85311e+23 1.90798e+23 1.95826e+23 2.00352e+23 
2.04317e+23 2.07681e+23 2.10419e+23 2.12505e+23 2.1391e+23 2.14614e+23 
2.14614e+23 2.1391e+23 2.12505e+23 2.10419e+23 2.07681e+23 2.04317e+23 
2.00352e+23 1.95826e+23 1.90798e+23 1.85311e+23 1.79397e+23 1.73092e+23 
1.66431e+23 1.59438e+23 1.52135e+23 1.44528e+23 1.36613e+23 1.28386e+23 
1.19841e+23 1.10961e+23 1.01727e+23 9.21202e+22 8.21148e+22 7.1682e+22 
6.08059e+22 4.94952e+22 3.76866e+22 2.52183e+22 1.23091e+22 3.2269e+18 
9.8069e+17 1.26589e+22 2.59547e+22 3.88088e+22 5.09978e+22 6.26884e+22 
7.39446e+22 8.4757e+22 9.51423e+22 1.05131e+23 1.1475e+23 1.2402e+23 
1.32962e+23 1.4159e+23 1.49914e+23 1.5794e+23 1.65669e+23 1.73092e+23 
1.80182e+23 1.86906e+23 1.93231e+23 1.99115e+23 2.04509e+23 2.0936e+23 
2.13614e+23 2.17231e+23 2.20189e+23 2.22452e+23 2.23978e+23 2.2474e+23 
2.2474e+23 2.23977e+23 2.22452e+23 2.20189e+23 2.17231e+23 2.13614e+23 
2.0936e+23 2.04509e+23 1.99115e+23 1.93231e+23 1.86905e+23 1.80182e+23 
1.73092e+23 1.65669e+23 1.5794e+23 1.49914e+23 1.4159e+23 1.32962e+23 
1.2402e+23 1.1475e+23 1.05131e+23 9.51422e+22 8.4757e+22 7.39446e+22 
6.26884e+22 5.09978e+22 3.88088e+22 2.59547e+22 1.26589e+22 9.80577e+17 
3.14896e+18 1.29814e+22 2.66298e+22 3.98415e+22 5.23833e+22 6.4425e+22 
7.60333e+22 8.7199e+22 9.79396e+22 1.08288e+23 1.18271e+23 1.27912e+23 
1.37231e+23 1.46245e+23 1.54968e+23 1.63405e+23 1.71553e+23 1.79397e+23 
1.86905e+23 1.94044e+23 2.00778e+23 2.07056e+23 2.12803e+23 2.17963e+23 
2.2251e+23 2.26407e+23 2.2961e+23 2.32069e+23 2.33729e+23 2.34561e+23 
2.34561e+23 2.33729e+23 2.32069e+23 2.2961e+23 2.26407e+23 2.2251e+23 
2.17963e+23 2.12803e+23 2.07056e+23 2.00778e+23 1.94044e+23 1.86905e+23 
1.79397e+23 1.71553e+23 1.63405e+23 1.54968e+23 1.46245e+23 1.37231e+23 
1.27912e+23 1.18271e+23 1.08287e+23 9.79395e+22 8.7199e+22 7.60332e+22 
6.4425e+22 5.23833e+22 3.98415e+22 2.66298e+22 1.29814e+22 3.14887e+18 
1.24201e+18 1.32759e+22 2.725e+22 4.0787e+22 5.36506e+22 6.6015e+22 
7.79477e+22 8.94397e+22 1.0051e+23 1.11192e+23 1.21516e+23 1.31506e+23 
1.41184e+23 1.50568e+23 1.59674e+23 1.68508e+23 1.7706e+23 1.85311e+23 
1.93231e+23 2.00778e+23 2.07901e+23 2.14544e+23 2.20632e+23 2.26123e+23 
2.31007e+23 2.35231e+23 2.38704e+23 2.41359e+23 2.43157e+23 2.44068e+23 
2.44068e+23 2.43157e+23 2.41359e+23 2.38704e+23 2.35231e+23 2.31007e+23 
2.26122e+23 2.20632e+23 2.14544e+23 2.07901e+23 2.00778e+23 1.93231e+23 
1.85311e+23 1.7706e+23 1.68508e+23 1.59674e+23 1.50568e+23 1.41184e+23 
1.31506e+23 1.21516e+23 1.11192e+23 1.0051e+23 8.94396e+22 7.79476e+22 
6.60149e+22 5.36506e+22 4.0787e+22 2.72499e+22 1.32759e+22 1.24189e+18 
3.13618e+18 1.35428e+22 2.78086e+22 4.1642e+22 5.47989e+22 6.74566e+22 
7.9685e+22 9.14755e+22 1.02848e+23 1.13839e+23 1.24479e+23 1.34794e+23 
1.44808e+23 1.54543e+23 1.64013e+23 1.73221e+23 1.82156e+23 1.90798e+23 
1.99115e+23 2.07057e+23 2.14544e+23 2.21519e+23 2.27956e+23 2.33824e+23 
2.39089e+23 2.43665e+23 2.47407e+23 2.50243e+23 2.52174e+23 2.53171e+23 
2.53171e+23 2.52174e+23 2.50242e+23 2.47407e+23 2.43665e+23 2.39089e+23 
2.33824e+23 2.27956e+23 2.21519e+23 2.14544e+23 2.07056e+23 1.99115e+23 
1.90798e+23 1.82156e+23 1.73221e+23 1.64013e+23 1.54543e+23 1.44808e+23 
1.34794e+23 1.24479e+23 1.13839e+23 1.02848e+23 9.14754e+22 7.9685e+22 
6.74566e+22 5.47988e+22 4.1642e+22 2.78085e+22 1.35428e+22 3.13605e+18 
1.48177e+18 1.37811e+22 2.83107e+22 4.2408e+22 5.58265e+22 6.87478e+22 
8.12424e+22 9.33023e+22 1.04949e+23 1.1622e+23 1.27149e+23 1.37763e+23 
1.48088e+23 1.58148e+23 1.67956e+23 1.77515e+23 1.86814e+23 1.95826e+23 
2.04509e+23 2.12803e+23 2.20632e+23 2.27956e+23 2.34785e+23 2.4107e+23 
2.46702e+23 2.51565e+23 2.55537e+23 2.58557e+23 2.60625e+23 2.61697e+23 
2.61697e+23 2.60625e+23 2.58557e+23 2.55537e+23 2.51565e+23 2.46701e+23 
2.4107e+23 2.34785e+23 2.27956e+23 2.20632e+23 2.12803e+23 2.04509e+23 
1.95826e+23 1.86814e+23 1.77515e+23 1.67956e+23 1.58148e+23 1.48088e+23 
1.37763e+23 1.27149e+23 1.1622e+23 1.04949e+23 9.33022e+22 8.12424e+22 
6.87477e+22 5.58265e+22 4.2408e+22 2.83107e+22 1.37811e+22 1.48168e+18 
3.03193e+18 1.39911e+22 2.87504e+22 4.30816e+22 5.67321e+22 6.98858e+22 
8.26159e+22 9.4915e+22 1.06806e+23 1.18328e+23 1.29516e+23 1.404e+23 
1.51008e+23 1.61363e+23 1.7148e+23 1.81361e+23 1.90997e+23 2.00352e+23 
2.0936e+23 2.17963e+23 2.26123e+23 2.33824e+23 2.4107e+23 2.47771e+23 
2.53716e+23 2.58782e+23 2.62963e+23 2.66211e+23 2.68438e+23 2.6957e+23 
2.6957e+23 2.68438e+23 2.66211e+23 2.62963e+23 2.58782e+23 2.53716e+23 
2.47771e+23 2.41069e+23 2.33824e+23 2.26123e+23 2.17963e+23 2.0936e+23 
2.00351e+23 1.90997e+23 1.81361e+23 1.7148e+23 1.61363e+23 1.51008e+23 
1.404e+23 1.29516e+23 1.18328e+23 1.06806e+23 9.4915e+22 8.26158e+22 
6.98858e+22 5.67321e+22 4.30816e+22 2.87504e+22 1.39911e+22 3.03181e+18 
1.74571e+18 1.41719e+22 2.91314e+22 4.36633e+22 5.75131e+22 7.08681e+22 
8.38025e+22 9.63095e+22 1.08413e+23 1.20155e+23 1.31571e+23 1.42693e+23 
1.5355e+23 1.64168e+23 1.74561e+23 1.84732e+23 1.94665e+23 2.04317e+23 
2.13614e+23 2.2251e+23 2.31007e+23 2.39089e+23 2.46701e+23 2.53716e+23 
2.59918e+23 2.6522e+23 2.69676e+23 2.73212e+23 2.75634e+23 2.76838e+23 
2.76838e+23 2.75634e+23 2.73212e+23 2.69676e+23 2.6522e+23 2.59918e+23 
2.53716e+23 2.46701e+23 2.39089e+23 2.31007e+23 2.2251e+23 2.13614e+23 
2.04317e+23 1.94665e+23 1.84732e+23 1.74561e+23 1.64168e+23 1.5355e+23 
1.42693e+23 1.31571e+23 1.20155e+23 1.08413e+23 9.63095e+22 8.38024e+22 
7.08681e+22 5.75131e+22 4.36632e+22 2.91314e+22 1.41719e+22 1.74563e+18 
2.89459e+18 1.43235e+22 2.94489e+22 4.41498e+22 5.81677e+22 7.16919e+22 
8.47983e+22 9.74808e+22 1.09765e+23 1.21692e+23 1.33302e+23 1.44627e+23 
1.55698e+23 1.66542e+23 1.77175e+23 1.87597e+23 1.97783e+23 2.07681e+23 
2.17231e+23 2.26407e+23 2.35231e+23 2.43665e+23 2.51565e+23 2.58783e+23 
2.6522e+23 2.70836e+23 2.7564e+23 2.79495e+23 2.82114e+23 2.83388e+23 
2.83388e+23 2.82114e+23 2.79495e+23 2.7564e+23 2.70836e+23 2.6522e+23 
2.58782e+23 2.51565e+23 2.43665e+23 2.35231e+23 2.26407e+23 2.17231e+23 
2.07681e+23 1.97782e+23 1.87597e+23 1.77175e+23 1.66542e+23 1.55698e+23 
1.44627e+23 1.33302e+23 1.21692e+23 1.09764e+23 9.74807e+22 8.47983e+22 
7.16919e+22 5.81676e+22 4.41497e+22 2.94489e+22 1.43234e+22 2.8945e+18 
2.00618e+18 1.44451e+22 2.97054e+22 4.45415e+22 5.8694e+22 7.23545e+22 
8.55997e+22 9.8424e+22 1.10854e+23 1.22933e+23 1.34701e+23 1.46191e+23 
1.57438e+23 1.68467e+23 1.79297e+23 1.89925e+23 2.00315e+23 2.1042e+23 
2.20189e+23 2.29611e+23 2.38704e+23 2.47407e+23 2.55537e+23 2.62963e+23 
2.69676e+23 2.7564e+23 2.80761e+23 2.84839e+23 2.87584e+23 2.88907e+23 
2.88907e+23 2.87584e+23 2.84839e+23 2.80761e+23 2.7564e+23 2.69676e+23 
2.62963e+23 2.55537e+23 2.47407e+23 2.38704e+23 2.29611e+23 2.20189e+23 
2.10419e+23 2.00315e+23 1.89925e+23 1.79297e+23 1.68467e+23 1.57438e+23 
1.46191e+23 1.34701e+23 1.22933e+23 1.10853e+23 9.84239e+22 8.55997e+22 
7.23545e+22 5.86939e+22 4.45414e+22 2.97054e+22 1.44451e+22 2.00609e+18 
2.71297e+18 1.45367e+22 2.98974e+22 4.4836e+22 5.90905e+22 7.28537e+22 
8.62034e+22 9.91349e+22 1.11675e+23 1.23869e+23 1.35757e+23 1.47375e+23 
1.58755e+23 1.69926e+23 1.80907e+23 1.9169e+23 2.02239e+23 2.12505e+23 
2.22452e+23 2.3207e+23 2.41359e+23 2.50243e+23 2.58557e+23 2.66211e+23 
2.73212e+23 2.79495e+23 2.84839e+23 2.89006e+23 2.91807e+23 2.93175e+23 
2.93175e+23 2.91807e+23 2.89006e+23 2.84839e+23 2.79495e+23 2.73212e+23 
2.66211e+23 2.58557e+23 2.50242e+23 2.41359e+23 2.32069e+23 2.22452e+23 
2.12505e+23 2.02238e+23 1.9169e+23 1.80907e+23 1.69926e+23 1.58755e+23 
1.47374e+23 1.35757e+23 1.23869e+23 1.11675e+23 9.91348e+22 8.62034e+22 
7.28536e+22 5.90905e+22 4.4836e+22 2.98974e+22 1.45367e+22 2.71288e+18 
2.26138e+18 1.45979e+22 3.00265e+22 4.50332e+22 5.93556e+22 7.31875e+22 
8.66075e+22 9.96108e+22 1.12225e+23 1.24496e+23 1.36465e+23 1.48168e+23 
1.59639e+23 1.70907e+23 1.81989e+23 1.92878e+23 2.03533e+23 2.1391e+23 
2.23978e+23 2.33729e+23 2.43157e+23 2.52174e+23 2.60625e+23 2.68438e+23 
2.75634e+23 2.82114e+23 2.87584e+23 2.91807e+23 2.94683e+23 2.9614e+23 
2.9614e+23 2.94683e+23 2.91807e+23 2.87584e+23 2.82114e+23 2.75634e+23 
2.68438e+23 2.60625e+23 2.52174e+23 2.43157e+23 2.33729e+23 2.23977e+23 
2.1391e+23 2.03533e+23 1.92878e+23 1.81989e+23 1.70907e+23 1.59639e+23 
1.48168e+23 1.36465e+23 1.24496e+23 1.12225e+23 9.96108e+22 8.66074e+22 
7.31875e+22 5.93555e+22 4.50332e+22 3.00265e+22 1.45979e+22 2.26128e+18 
2.49979e+18 1.46286e+22 3.00908e+22 4.51317e+22 5.94882e+22 7.33548e+22 
8.68101e+22 9.98496e+22 1.12501e+23 1.24811e+23 1.36821e+23 1.48567e+23 
1.60083e+23 1.714e+23 1.82534e+23 1.93477e+23 2.04186e+23 2.14614e+23 
2.24741e+23 2.34561e+23 2.44068e+23 2.53171e+23 2.61697e+23 2.6957e+23 
2.76838e+23 2.83388e+23 2.88907e+23 2.93175e+23 2.9614e+23 2.97711e+23 
2.97711e+23 2.9614e+23 2.93175e+23 2.88907e+23 2.83388e+23 2.76838e+23 
2.6957e+23 2.61697e+23 2.53171e+23 2.44068e+23 2.34561e+23 2.2474e+23 
2.14614e+23 2.04186e+23 1.93477e+23 1.82534e+23 1.71399e+23 1.60083e+23 
1.48566e+23 1.36821e+23 1.24811e+23 1.12501e+23 9.98496e+22 8.68101e+22 
7.33548e+22 5.94882e+22 4.51317e+22 3.00908e+22 1.46286e+22 2.4997e+18 
2.4998e+18 1.46286e+22 3.00908e+22 4.51317e+22 5.94882e+22 7.33548e+22 
8.68101e+22 9.98496e+22 1.12501e+23 1.24811e+23 1.36821e+23 1.48567e+23 
1.60083e+23 1.714e+23 1.82534e+23 1.93477e+23 2.04186e+23 2.14614e+23 
2.24741e+23 2.34561e+23 2.44068e+23 2.53171e+23 2.61697e+23 2.6957e+23 
2.76838e+23 2.83388e+23 2.88907e+23 2.93175e+23 2.9614e+23 2.97711e+23 
2.97711e+23 2.9614e+23 2.93175e+23 2.88907e+23 2.83388e+23 2.76838e+23 
2.6957e+23 2.61697e+23 2.53171e+23 2.44068e+23 2.34561e+23 2.24741e+23 
2.14614e+23 2.04186e+23 1.93477e+23 1.82534e+23 1.71399e+23 1.60083e+23 
1.48566e+23 1.36821e+23 1.24811e+23 1.12501e+23 9.98496e+22 8.68101e+22 
7.33548e+22 5.94882e+22 4.51317e+22 3.00908e+22 1.46286e+22 2.4997e+18 
2.26141e+18 1.45979e+22 3.00265e+22 4.50332e+22 5.93556e+22 7.31875e+22 
8.66075e+22 9.96109e+22 1.12225e+23 1.24496e+23 1.36465e+23 1.48168e+23 
1.59639e+23 1.70907e+23 1.81989e+23 1.92878e+23 2.03534e+23 2.1391e+23 
2.23978e+23 2.33729e+23 2.43157e+23 2.52174e+23 2.60625e+23 2.68438e+23 
2.75634e+23 2.82114e+23 2.87584e+23 2.91807e+23 2.94683e+23 2.9614e+23 
2.9614e+23 2.94683e+23 2.91807e+23 2.87584e+23 2.82114e+23 2.75634e+23 
2.68438e+23 2.60625e+23 2.52174e+23 2.43157e+23 2.33729e+23 2.23977e+23 
2.1391e+23 2.03533e+23 1.92878e+23 1.81989e+23 1.70907e+23 1.59639e+23 
1.48168e+23 1.36465e+23 1.24496e+23 1.12225e+23 9.96108e+22 8.66074e+22 
7.31875e+22 5.93556e+22 4.50332e+22 3.00265e+22 1.45979e+22 2.26131e+18 
2.71301e+18 1.45367e+22 2.98974e+22 4.4836e+22 5.90906e+22 7.28537e+22 
8.62034e+22 9.91349e+22 1.11675e+23 1.23869e+23 1.35757e+23 1.47375e+23 
1.58755e+23 1.69926e+23 1.80907e+23 1.9169e+23 2.02239e+23 2.12505e+23 
2.22452e+23 2.3207e+23 2.41359e+23 2.50243e+23 2.58557e+23 2.66211e+23 
2.73212e+23 2.79495e+23 2.84839e+23 2.89006e+23 2.91807e+23 2.93175e+23 
2.93175e+23 2.91807e+23 2.89006e+23 2.84839e+23 2.79495e+23 2.73212e+23 
2.66211e+23 2.58557e+23 2.50242e+23 2.41359e+23 2.32069e+23 2.22452e+23 
2.12505e+23 2.02239e+23 1.9169e+23 1.80907e+23 1.69926e+23 1.58755e+23 
1.47374e+23 1.35757e+23 1.23869e+23 1.11675e+23 9.91348e+22 8.62034e+22 
7.28536e+22 5.90905e+22 4.4836e+22 2.98974e+22 1.45367e+22 2.71291e+18 
2.00625e+18 1.44451e+22 2.97054e+22 4.45415e+22 5.8694e+22 7.23546e+22 
8.55998e+22 9.8424e+22 1.10854e+23 1.22933e+23 1.34701e+23 1.46191e+23 
1.57438e+23 1.68467e+23 1.79297e+23 1.89925e+23 2.00315e+23 2.1042e+23 
2.20189e+23 2.29611e+23 2.38704e+23 2.47407e+23 2.55537e+23 2.62963e+23 
2.69676e+23 2.7564e+23 2.80761e+23 2.84839e+23 2.87584e+23 2.88907e+23 
2.88907e+23 2.87584e+23 2.84839e+23 2.80761e+23 2.7564e+23 2.69676e+23 
2.62963e+23 2.55537e+23 2.47407e+23 2.38704e+23 2.29611e+23 2.20189e+23 
2.10419e+23 2.00315e+23 1.89925e+23 1.79297e+23 1.68467e+23 1.57438e+23 
1.46191e+23 1.34701e+23 1.22933e+23 1.10854e+23 9.84239e+22 8.55997e+22 
7.23545e+22 5.8694e+22 4.45415e+22 2.97054e+22 1.44451e+22 2.00614e+18 
2.89467e+18 1.43235e+22 2.94489e+22 4.41498e+22 5.81677e+22 7.1692e+22 
8.47984e+22 9.74808e+22 1.09765e+23 1.21692e+23 1.33303e+23 1.44627e+23 
1.55699e+23 1.66542e+23 1.77175e+23 1.87597e+23 1.97783e+23 2.07681e+23 
2.17231e+23 2.26407e+23 2.35231e+23 2.43666e+23 2.51565e+23 2.58783e+23 
2.6522e+23 2.70836e+23 2.7564e+23 2.79495e+23 2.82114e+23 2.83388e+23 
2.83388e+23 2.82114e+23 2.79495e+23 2.7564e+23 2.70836e+23 2.6522e+23 
2.58782e+23 2.51565e+23 2.43665e+23 2.35231e+23 2.26407e+23 2.17231e+23 
2.07681e+23 1.97782e+23 1.87597e+23 1.77175e+23 1.66542e+23 1.55698e+23 
1.44627e+23 1.33302e+23 1.21692e+23 1.09765e+23 9.74808e+22 8.47983e+22 
7.16919e+22 5.81677e+22 4.41498e+22 2.94489e+22 1.43235e+22 2.89455e+18 
1.74581e+18 1.41719e+22 2.91315e+22 4.36633e+22 5.75132e+22 7.08682e+22 
8.38026e+22 9.63096e+22 1.08413e+23 1.20155e+23 1.31571e+23 1.42693e+23 
1.5355e+23 1.64168e+23 1.74561e+23 1.84732e+23 1.94665e+23 2.04317e+23 
2.13614e+23 2.2251e+23 2.31007e+23 2.39089e+23 2.46702e+23 2.53716e+23 
2.59918e+23 2.6522e+23 2.69676e+23 2.73212e+23 2.75634e+23 2.76838e+23 
2.76838e+23 2.75634e+23 2.73212e+23 2.69676e+23 2.6522e+23 2.59918e+23 
2.53716e+23 2.46701e+23 2.39089e+23 2.31007e+23 2.2251e+23 2.13614e+23 
2.04317e+23 1.94665e+23 1.84732e+23 1.74561e+23 1.64168e+23 1.5355e+23 
1.42693e+23 1.31571e+23 1.20155e+23 1.08413e+23 9.63095e+22 8.38025e+22 
7.08681e+22 5.75131e+22 4.36633e+22 2.91314e+22 1.41719e+22 1.74569e+18 
3.03204e+18 1.39911e+22 2.87504e+22 4.30817e+22 5.67322e+22 6.98859e+22 
8.26159e+22 9.49151e+22 1.06806e+23 1.18328e+23 1.29517e+23 1.404e+23 
1.51008e+23 1.61363e+23 1.7148e+23 1.81361e+23 1.90997e+23 2.00352e+23 
2.0936e+23 2.17963e+23 2.26123e+23 2.33824e+23 2.4107e+23 2.47771e+23 
2.53716e+23 2.58783e+23 2.62963e+23 2.66211e+23 2.68438e+23 2.6957e+23 
2.6957e+23 2.68438e+23 2.66211e+23 2.62963e+23 2.58782e+23 2.53716e+23 
2.47771e+23 2.4107e+23 2.33824e+23 2.26123e+23 2.17963e+23 2.0936e+23 
2.00352e+23 1.90997e+23 1.81361e+23 1.7148e+23 1.61363e+23 1.51008e+23 
1.404e+23 1.29516e+23 1.18328e+23 1.06806e+23 9.4915e+22 8.26159e+22 
6.98858e+22 5.67322e+22 4.30816e+22 2.87504e+22 1.39911e+22 3.03192e+18 
1.4819e+18 1.37812e+22 2.83108e+22 4.24081e+22 5.58266e+22 6.87478e+22 
8.12425e+22 9.33024e+22 1.04949e+23 1.1622e+23 1.27149e+23 1.37763e+23 
1.48088e+23 1.58149e+23 1.67956e+23 1.77515e+23 1.86814e+23 1.95826e+23 
2.04509e+23 2.12803e+23 2.20632e+23 2.27956e+23 2.34785e+23 2.4107e+23 
2.46702e+23 2.51565e+23 2.55537e+23 2.58557e+23 2.60625e+23 2.61697e+23 
2.61697e+23 2.60625e+23 2.58557e+23 2.55537e+23 2.51565e+23 2.46702e+23 
2.4107e+23 2.34785e+23 2.27956e+23 2.20632e+23 2.12803e+23 2.04509e+23 
1.95826e+23 1.86814e+23 1.77515e+23 1.67956e+23 1.58148e+23 1.48088e+23 
1.37763e+23 1.27149e+23 1.1622e+23 1.04949e+23 9.33023e+22 8.12425e+22 
6.87478e+22 5.58266e+22 4.2408e+22 2.83107e+22 1.37811e+22 1.48178e+18 
3.13631e+18 1.35428e+22 2.78086e+22 4.16421e+22 5.47989e+22 6.74567e+22 
7.96851e+22 9.14756e+22 1.02848e+23 1.13839e+23 1.24479e+23 1.34794e+23 
1.44808e+23 1.54543e+23 1.64013e+23 1.73221e+23 1.82157e+23 1.90798e+23 
1.99115e+23 2.07057e+23 2.14544e+23 2.21519e+23 2.27956e+23 2.33824e+23 
2.39089e+23 2.43666e+23 2.47407e+23 2.50243e+23 2.52174e+23 2.53171e+23 
2.53171e+23 2.52174e+23 2.50243e+23 2.47407e+23 2.43665e+23 2.39089e+23 
2.33824e+23 2.27956e+23 2.21519e+23 2.14544e+23 2.07057e+23 1.99115e+23 
1.90798e+23 1.82156e+23 1.73221e+23 1.64013e+23 1.54543e+23 1.44808e+23 
1.34794e+23 1.24479e+23 1.13839e+23 1.02848e+23 9.14755e+22 7.96851e+22 
6.74566e+22 5.47989e+22 4.1642e+22 2.78086e+22 1.35428e+22 3.13619e+18 
1.24216e+18 1.32759e+22 2.725e+22 4.07871e+22 5.36507e+22 6.60151e+22 
7.79478e+22 8.94398e+22 1.0051e+23 1.11192e+23 1.21516e+23 1.31506e+23 
1.41184e+23 1.50568e+23 1.59674e+23 1.68508e+23 1.7706e+23 1.85311e+23 
1.93231e+23 2.00778e+23 2.07901e+23 2.14544e+23 2.20632e+23 2.26123e+23 
2.31007e+23 2.35231e+23 2.38704e+23 2.41359e+23 2.43157e+23 2.44068e+23 