# vtk DataFile Version 2.0 
Lid_driven streamfuntion-vorticity 
ASCII 
DATASET RECTILINEAR_GRID 
DIMENSIONS 60 60 1
X_COORDINATES 60 float 
0 
0.0169492 0.0338983 0.0508475 0.0677966 0.0847458 0.101695 
0.118644 0.135593 0.152542 0.169492 0.186441 0.20339 
0.220339 0.237288 0.254237 0.271186 0.288136 0.305085 
0.322034 0.338983 0.355932 0.372881 0.389831 0.40678 
0.423729 0.440678 0.457627 0.474576 0.491525 0.508475 
0.525424 0.542373 0.559322 0.576271 0.59322 0.610169 
0.627119 0.644068 0.661017 0.677966 0.694915 0.711864 
0.728814 0.745763 0.762712 0.779661 0.79661 0.813559 
0.830508 0.847458 0.864407 0.881356 0.898305 0.915254 
0.932203 0.949153 0.966102 0.983051 1 
Y_COORDINATES 60 float 
0 
0.0169492 0.0338983 0.0508475 0.0677966 0.0847458 0.101695 
0.118644 0.135593 0.152542 0.169492 0.186441 0.20339 
0.220339 0.237288 0.254237 0.271186 0.288136 0.305085 
0.322034 0.338983 0.355932 0.372881 0.389831 0.40678 
0.423729 0.440678 0.457627 0.474576 0.491525 0.508475 
0.525424 0.542373 0.559322 0.576271 0.59322 0.610169 
0.627119 0.644068 0.661017 0.677966 0.694915 0.711864 
0.728814 0.745763 0.762712 0.779661 0.79661 0.813559 
0.830508 0.847458 0.864407 0.881356 0.898305 0.915254 
0.932203 0.949153 0.966102 0.983051 1 
Z_COORDINATES 1 float 
0 

POINT_DATA 3600
SCALARS vorticity float
LOOKUP_TABLE default 
1.41884e+24 1.41346e+24 1.40827e+24 1.40368e+24 1.3997e+24 1.39596e+24 
1.39229e+24 1.38879e+24 1.38562e+24 1.38266e+24 1.37972e+24 1.37672e+24 
1.37386e+24 1.37126e+24 1.36907e+24 1.3674e+24 1.36618e+24 1.3653e+24 
1.36463e+24 1.36419e+24 1.3641e+24 1.36433e+24 1.3646e+24 1.36482e+24 
1.36511e+24 1.36547e+24 1.3657e+24 1.36574e+24 1.3657e+24 1.36559e+24 
1.3653e+24 1.36486e+24 1.36452e+24 1.36432e+24 1.36422e+24 1.36435e+24 
1.36503e+24 1.36606e+24 1.36687e+24 1.3674e+24 1.36798e+24 1.36882e+24 
1.36997e+24 1.37125e+24 1.37242e+24 1.37338e+24 1.37407e+24 1.37435e+24 
1.3741e+24 1.37343e+24 1.37262e+24 1.37216e+24 1.3728e+24 1.37482e+24 
1.37819e+24 1.3823e+24 1.38675e+24 1.39142e+24 1.39602e+24 1.40023e+24 
1.41402e+24 1.40725e+24 1.40116e+24 1.3971e+24 1.39418e+24 1.39125e+24 
1.38831e+24 1.38559e+24 1.38369e+24 1.3827e+24 1.3815e+24 1.37958e+24 
1.37816e+24 1.37785e+24 1.37736e+24 1.37614e+24 1.37561e+24 1.3762e+24 
1.37635e+24 1.37561e+24 1.37567e+24 1.37688e+24 1.37736e+24 1.37672e+24 
1.37684e+24 1.37801e+24 1.37829e+24 1.37746e+24 1.37745e+24 1.37835e+24 
1.37821e+24 1.37706e+24 1.37689e+24 1.37764e+24 1.37739e+24 1.37643e+24 
1.37675e+24 1.37796e+24 1.37798e+24 1.37713e+24 1.37732e+24 1.37829e+24 
1.37843e+24 1.37814e+24 1.3788e+24 1.37985e+24 1.37981e+24 1.37919e+24 
1.37923e+24 1.37942e+24 1.37866e+24 1.37768e+24 1.37777e+24 1.37901e+24 
1.38082e+24 1.3828e+24 1.38472e+24 1.38748e+24 1.3919e+24 1.39668e+24 
1.4094e+24 1.40147e+24 1.39447e+24 1.39054e+24 1.38799e+24 1.38527e+24 
1.38343e+24 1.38297e+24 1.38312e+24 1.38334e+24 1.38363e+24 1.38404e+24 
1.38479e+24 1.38592e+24 1.38687e+24 1.38741e+24 1.38826e+24 1.38958e+24 
1.39054e+24 1.3909e+24 1.39158e+24 1.39282e+24 1.39353e+24 1.39352e+24 
1.39394e+24 1.39496e+24 1.39534e+24 1.39497e+24 1.39512e+24 1.39584e+24 
1.39585e+24 1.39513e+24 1.39499e+24 1.39536e+24 1.39497e+24 1.39394e+24 
1.3935e+24 1.39348e+24 1.39277e+24 1.39156e+24 1.39092e+24 1.39062e+24 
1.38972e+24 1.38847e+24 1.38774e+24 1.38733e+24 1.38653e+24 1.38552e+24 
1.38482e+24 1.38438e+24 1.38383e+24 1.38314e+24 1.38215e+24 1.38145e+24 
1.38171e+24 1.38245e+24 1.38265e+24 1.38383e+24 1.38788e+24 1.39283e+24 
1.40551e+24 1.39754e+24 1.39024e+24 1.38567e+24 1.38258e+24 1.3797e+24 
1.37957e+24 1.38352e+24 1.38665e+24 1.38624e+24 1.38713e+24 1.39205e+24 
1.39585e+24 1.39594e+24 1.39725e+24 1.40205e+24 1.40534e+24 1.40518e+24 
1.40642e+24 1.4107e+24 1.41295e+24 1.41183e+24 1.41259e+24 1.4164e+24 
1.41791e+24 1.41625e+24 1.41667e+24 1.41975e+24 1.42025e+24 1.4179e+24 
1.41793e+24 1.42033e+24 1.41987e+24 1.41682e+24 1.41639e+24 1.418e+24 
1.41639e+24 1.41246e+24 1.41159e+24 1.41263e+24 1.41034e+24 1.40603e+24 
1.40474e+24 1.40486e+24 1.40158e+24 1.39685e+24 1.39572e+24 1.39591e+24 
1.39248e+24 1.38799e+24 1.38751e+24 1.38822e+24 1.38512e+24 1.3808e+24 
1.37992e+24 1.38101e+24 1.38137e+24 1.38227e+24 1.38533e+24 1.38914e+24 
1.40206e+24 1.39466e+24 1.38735e+24 1.38221e+24 1.37988e+24 1.3797e+24 
1.38256e+24 1.38891e+24 1.39384e+24 1.39486e+24 1.39773e+24 1.40539e+24 
1.41099e+24 1.41145e+24 1.41381e+24 1.42112e+24 1.42578e+24 1.42513e+24 
1.42676e+24 1.4332e+24 1.43654e+24 1.43468e+24 1.43576e+24 1.44151e+24 
1.44352e+24 1.44055e+24 1.44104e+24 1.44589e+24 1.44656e+24 1.44261e+24 
1.44261e+24 1.44655e+24 1.44588e+24 1.44103e+24 1.44054e+24 1.44352e+24 
1.44152e+24 1.43579e+24 1.43471e+24 1.43654e+24 1.43317e+24 1.42669e+24 
1.42502e+24 1.42562e+24 1.42089e+24 1.41351e+24 1.41109e+24 1.41062e+24 
1.40508e+24 1.39756e+24 1.39501e+24 1.3944e+24 1.38998e+24 1.38402e+24 
1.38116e+24 1.38047e+24 1.38051e+24 1.38162e+24 1.38354e+24 1.38555e+24 
1.39844e+24 1.39173e+24 1.3847e+24 1.37963e+24 1.38021e+24 1.38732e+24 
1.39475e+24 1.39811e+24 1.40205e+24 1.41e+24 1.41788e+24 1.42265e+24 
1.42695e+24 1.43273e+24 1.43822e+24 1.44211e+24 1.44524e+24 1.44834e+24 
1.45133e+24 1.45392e+24 1.45633e+24 1.45871e+24 1.46062e+24 1.46185e+24 
1.46275e+24 1.46351e+24 1.46428e+24 1.46497e+24 1.46529e+24 1.46527e+24 
1.46525e+24 1.46526e+24 1.46492e+24 1.46423e+24 1.46346e+24 1.46272e+24 
1.46186e+24 1.46068e+24 1.4588e+24 1.45644e+24 1.45404e+24 1.45145e+24 
1.44846e+24 1.44535e+24 1.44217e+24 1.4382e+24 1.43261e+24 1.42671e+24 
1.42228e+24 1.41743e+24 1.4096e+24 1.40188e+24 1.39842e+24 1.39572e+24 
1.38894e+24 1.38186e+24 1.37979e+24 1.38089e+24 1.3816e+24 1.38175e+24 
1.39469e+24 1.38872e+24 1.38295e+24 1.37982e+24 1.38353e+24 1.39519e+24 
1.40539e+24 1.40772e+24 1.41243e+24 1.42579e+24 1.43668e+24 1.43848e+24 
1.4416e+24 1.45149e+24 1.45851e+24 1.458e+24 1.45918e+24 1.46584e+24 
1.46992e+24 1.46817e+24 1.46848e+24 1.47341e+24 1.47519e+24 1.47195e+24 
1.47174e+24 1.47582e+24 1.47655e+24 1.47303e+24 1.47289e+24 1.47659e+24 
1.47659e+24 1.4729e+24 1.47303e+24 1.47655e+24 1.47582e+24 1.47173e+24 
1.47194e+24 1.47517e+24 1.4734e+24 1.46849e+24 1.46819e+24 1.46996e+24 
1.4659e+24 1.45927e+24 1.45811e+24 1.45863e+24 1.45159e+24 1.44165e+24 
1.43843e+24 1.4365e+24 1.42549e+24 1.41209e+24 1.40756e+24 1.40572e+24 
1.39636e+24 1.38539e+24 1.3811e+24 1.3807e+24 1.37959e+24 1.37809e+24 
1.39113e+24 1.38589e+24 1.38233e+24 1.38351e+24 1.38947e+24 1.39801e+24 
1.40708e+24 1.41607e+24 1.42621e+24 1.43754e+24 1.44583e+24 1.44938e+24 
1.45388e+24 1.46185e+24 1.46648e+24 1.46514e+24 1.46604e+24 1.47229e+24 
1.47559e+24 1.47306e+24 1.47155e+24 1.4734e+24 1.47357e+24 1.47082e+24 
1.47043e+24 1.47325e+24 1.47327e+24 1.46993e+24 1.46954e+24 1.47249e+24 
1.4725e+24 1.46955e+24 1.46994e+24 1.47329e+24 1.47327e+24 1.47044e+24 
1.47081e+24 1.47355e+24 1.47337e+24 1.47151e+24 1.47302e+24 1.47556e+24 
1.47228e+24 1.46604e+24 1.46517e+24 1.46654e+24 1.46194e+24 1.45397e+24 
1.44943e+24 1.44577e+24 1.43729e+24 1.42575e+24 1.41547e+24 1.40664e+24 
1.39827e+24 1.39078e+24 1.38517e+24 1.38124e+24 1.37791e+24 1.37532e+24 
1.38798e+24 1.38393e+24 1.38233e+24 1.38641e+24 1.39407e+24 1.40152e+24 
1.41131e+24 1.42575e+24 1.43891e+24 1.4468e+24 1.45241e+24 1.45817e+24 
1.46341e+24 1.46747e+24 1.46941e+24 1.46942e+24 1.47058e+24 1.47347e+24 
1.47308e+24 1.46906e+24 1.46692e+24 1.46767e+24 1.46714e+24 1.46427e+24 
1.46271e+24 1.46347e+24 1.46271e+24 1.46e+24 1.45941e+24 1.46117e+24 
1.46117e+24 1.45941e+24 1.46e+24 1.46271e+24 1.46347e+24 1.46272e+24 
1.46428e+24 1.46714e+24 1.46767e+24 1.46691e+24 1.46905e+24 1.47305e+24 
1.47344e+24 1.47054e+24 1.46939e+24 1.46939e+24 1.46747e+24 1.46344e+24 
1.45822e+24 1.45242e+24 1.44669e+24 1.43856e+24 1.42512e+24 1.41052e+24 
1.40109e+24 1.39472e+24 1.38806e+24 1.38213e+24 1.37745e+24 1.37398e+24 
1.38513e+24 1.38302e+24 1.3827e+24 1.38628e+24 1.39553e+24 1.41002e+24 
1.4253e+24 1.43776e+24 1.44752e+24 1.45529e+24 1.46178e+24 1.46736e+24 
1.47091e+24 1.47197e+24 1.47292e+24 1.47486e+24 1.47524e+24 1.47268e+24 
1.46739e+24 1.46097e+24 1.45997e+24 1.46466e+24 1.46487e+24 1.45889e+24 
1.45592e+24 1.45756e+24 1.45729e+24 1.45405e+24 1.45372e+24 1.45651e+24 
1.45651e+24 1.45372e+24 1.45404e+24 1.45728e+24 1.45756e+24 1.45592e+24 
1.45889e+24 1.46488e+24 1.46467e+24 1.45998e+24 1.46098e+24 1.46739e+24 
1.47268e+24 1.47523e+24 1.47484e+24 1.47291e+24 1.47198e+24 1.47097e+24 
1.46749e+24 1.46198e+24 1.45551e+24 1.44766e+24 1.43764e+24 1.42487e+24 
1.40955e+24 1.39584e+24 1.38773e+24 1.38306e+24 1.37839e+24 1.37411e+24 
1.38241e+24 1.38195e+24 1.38306e+24 1.38735e+24 1.39872e+24 1.41826e+24 
1.43657e+24 1.44647e+24 1.45359e+24 1.46222e+24 1.46931e+24 1.47282e+24 
1.47422e+24 1.47444e+24 1.47446e+24 1.47417e+24 1.47029e+24 1.46337e+24 
1.45937e+24 1.4588e+24 1.45996e+24 1.46176e+24 1.46056e+24 1.4575e+24 
1.4591e+24 1.46443e+24 1.46695e+24 1.46607e+24 1.46752e+24 1.47127e+24 
1.47127e+24 1.46752e+24 1.46607e+24 1.46695e+24 1.46443e+24 1.4591e+24 
1.4575e+24 1.46056e+24 1.46177e+24 1.45996e+24 1.45881e+24 1.45939e+24 
1.46338e+24 1.4703e+24 1.47417e+24 1.47447e+24 1.47445e+24 1.47426e+24 
1.47292e+24 1.46951e+24 1.46254e+24 1.45397e+24 1.44672e+24 1.43649e+24 
1.41788e+24 1.39875e+24 1.38845e+24 1.38378e+24 1.37925e+24 1.37493e+24 
1.37971e+24 1.3801e+24 1.38329e+24 1.39196e+24 1.40596e+24 1.42249e+24 
1.43771e+24 1.44933e+24 1.45863e+24 1.46707e+24 1.47205e+24 1.47224e+24 
1.47199e+24 1.47342e+24 1.47129e+24 1.46348e+24 1.45443e+24 1.44851e+24 
1.45322e+24 1.46721e+24 1.47018e+24 1.45896e+24 1.45661e+24 1.46855e+24 
1.48004e+24 1.48636e+24 1.49151e+24 1.49734e+24 1.50095e+24 1.50196e+24 
1.50196e+24 1.50096e+24 1.49734e+24 1.49152e+24 1.48636e+24 1.48004e+24 
1.46855e+24 1.45661e+24 1.45895e+24 1.47018e+24 1.46721e+24 1.45321e+24 
1.44851e+24 1.45443e+24 1.46347e+24 1.47126e+24 1.47336e+24 1.4719e+24 
1.47213e+24 1.47196e+24 1.46705e+24 1.4587e+24 1.44939e+24 1.43755e+24 
1.422e+24 1.40566e+24 1.39254e+24 1.38406e+24 1.37913e+24 1.3758e+24 
1.37702e+24 1.37873e+24 1.38392e+24 1.39557e+24 1.41134e+24 1.42649e+24 
1.44045e+24 1.45345e+24 1.4635e+24 1.47021e+24 1.47301e+24 1.47157e+24 
1.46952e+24 1.46852e+24 1.4622e+24 1.45088e+24 1.44758e+24 1.45482e+24 
1.46442e+24 1.47328e+24 1.4747e+24 1.47172e+24 1.48398e+24 1.50864e+24 
1.52059e+24 1.51907e+24 1.52314e+24 1.53511e+24 1.53831e+24 1.532e+24 
1.532e+24 1.53831e+24 1.53511e+24 1.52314e+24 1.51907e+24 1.52059e+24 
1.50865e+24 1.48398e+24 1.47171e+24 1.47469e+24 1.47327e+24 1.46441e+24 
1.45481e+24 1.44757e+24 1.45087e+24 1.46218e+24 1.46847e+24 1.46942e+24 
1.47141e+24 1.4728e+24 1.47001e+24 1.46336e+24 1.45338e+24 1.44026e+24 
1.42601e+24 1.41087e+24 1.39571e+24 1.38464e+24 1.37921e+24 1.37634e+24 
1.37431e+24 1.37842e+24 1.38518e+24 1.39595e+24 1.41225e+24 1.43282e+24 
1.45097e+24 1.46212e+24 1.46831e+24 1.47202e+24 1.474e+24 1.47379e+24 
1.46935e+24 1.46085e+24 1.45159e+24 1.44678e+24 1.45964e+24 1.48804e+24 
1.49446e+24 1.47273e+24 1.47495e+24 1.51508e+24 1.5531e+24 1.57238e+24 
1.57586e+24 1.57196e+24 1.58175e+24 1.60151e+24 1.60758e+24 1.59804e+24 
1.59804e+24 1.60758e+24 1.60151e+24 1.58175e+24 1.57196e+24 1.57586e+24 
1.57239e+24 1.5531e+24 1.51509e+24 1.47496e+24 1.47273e+24 1.49447e+24 
1.48805e+24 1.45965e+24 1.4468e+24 1.45163e+24 1.46091e+24 1.46942e+24 
1.47385e+24 1.47405e+24 1.47207e+24 1.46843e+24 1.46233e+24 1.45113e+24 
1.43268e+24 1.4119e+24 1.39584e+24 1.38584e+24 1.38007e+24 1.37634e+24 
1.37165e+24 1.37775e+24 1.38617e+24 1.39744e+24 1.41486e+24 1.43857e+24 
1.45828e+24 1.46709e+24 1.47063e+24 1.47333e+24 1.47438e+24 1.47204e+24 
1.46343e+24 1.45198e+24 1.45118e+24 1.46369e+24 1.48157e+24 1.50031e+24 
1.50369e+24 1.49546e+24 1.52572e+24 1.59254e+24 1.62542e+24 1.6213e+24 
1.64145e+24 1.69345e+24 1.74e+24 1.76639e+24 1.79228e+24 1.81627e+24 
1.81627e+24 1.79228e+24 1.76639e+24 1.74e+24 1.69345e+24 1.64145e+24 
1.6213e+24 1.62542e+24 1.59255e+24 1.52572e+24 1.49547e+24 1.5037e+24 
1.50032e+24 1.48159e+24 1.46371e+24 1.45123e+24 1.45205e+24 1.46355e+24 
1.47218e+24 1.47453e+24 1.47348e+24 1.47084e+24 1.4674e+24 1.45861e+24 
1.43867e+24 1.41462e+24 1.39712e+24 1.38672e+24 1.38023e+24 1.37578e+24 
1.36906e+24 1.3761e+24 1.38658e+24 1.40204e+24 1.42172e+24 1.44186e+24 
1.45712e+24 1.46505e+24 1.46988e+24 1.47448e+24 1.47327e+24 1.46343e+24 
1.45128e+24 1.44632e+24 1.46282e+24 1.49686e+24 1.50431e+24 1.47832e+24 
1.49063e+24 1.56508e+24 1.64268e+24 1.69182e+24 1.70361e+24 1.7023e+24 
1.78947e+24 1.95491e+24 2.05527e+24 2.07445e+24 2.12616e+24 2.21476e+24 
2.21476e+24 2.12615e+24 2.07445e+24 2.05527e+24 1.9549e+24 1.78946e+24 
1.70229e+24 1.7036e+24 1.69181e+24 1.64267e+24 1.56507e+24 1.49062e+24 
1.47831e+24 1.5043e+24 1.49683e+24 1.46277e+24 1.44627e+24 1.45122e+24 
1.46336e+24 1.47319e+24 1.47436e+24 1.46975e+24 1.46501e+24 1.45717e+24 
1.44188e+24 1.42143e+24 1.40149e+24 1.38693e+24 1.37905e+24 1.3746e+24 
1.36641e+24 1.37493e+24 1.38739e+24 1.40535e+24 1.42618e+24 1.44471e+24 
1.45803e+24 1.4657e+24 1.47073e+24 1.47454e+24 1.46906e+24 1.45407e+24 
1.44766e+24 1.45883e+24 1.48034e+24 1.50397e+24 1.5074e+24 1.49762e+24 
1.552e+24 1.67448e+24 1.74939e+24 1.7704e+24 1.85218e+24 2.01093e+24 
2.19797e+24 2.36754e+24 2.46446e+24 2.50493e+24 2.55145e+24 2.60788e+24 
2.60788e+24 2.55145e+24 2.50493e+24 2.46446e+24 2.36754e+24 2.19796e+24 
2.01093e+24 1.85217e+24 1.77039e+24 1.74938e+24 1.67447e+24 1.55198e+24 
1.49761e+24 1.50738e+24 1.50394e+24 1.48028e+24 1.45875e+24 1.44754e+24 
1.45394e+24 1.4689e+24 1.47432e+24 1.47048e+24 1.46548e+24 1.45794e+24 
1.44472e+24 1.42592e+24 1.40468e+24 1.38756e+24 1.37801e+24 1.37261e+24 
1.36378e+24 1.37484e+24 1.38896e+24 1.40565e+24 1.4259e+24 1.4483e+24 
1.46539e+24 1.4727e+24 1.47437e+24 1.47275e+24 1.46298e+24 1.44897e+24 
1.45573e+24 1.48808e+24 1.49996e+24 1.47886e+24 1.49853e+24 1.59338e+24 
1.70753e+24 1.80033e+24 1.84544e+24 1.88777e+24 2.13374e+24 2.55715e+24 
2.78309e+24 2.75793e+24 2.77822e+24 2.90206e+24 2.91899e+24 2.81477e+24 
2.81477e+24 2.91899e+24 2.90206e+24 2.77822e+24 2.75793e+24 2.7831e+24 
2.55715e+24 2.13374e+24 1.88778e+24 1.84544e+24 1.80033e+24 1.70753e+24 
1.59339e+24 1.49855e+24 1.4789e+24 1.50001e+24 1.48814e+24 1.4558e+24 
1.44906e+24 1.46308e+24 1.47285e+24 1.47445e+24 1.47275e+24 1.46553e+24 
1.44853e+24 1.42585e+24 1.40507e+24 1.38908e+24 1.37778e+24 1.3699e+24 
1.3616e+24 1.37441e+24 1.39007e+24 1.40713e+24 1.42763e+24 1.45142e+24 
1.46974e+24 1.47627e+24 1.47422e+24 1.46771e+24 1.45927e+24 1.45397e+24 
1.46562e+24 1.49479e+24 1.50364e+24 1.49148e+24 1.55322e+24 1.70783e+24 
1.82181e+24 1.88154e+24 2.03318e+24 2.30279e+24 2.64545e+24 2.96365e+24 
3.01388e+24 2.85686e+24 2.85231e+24 3.01691e+24 3.04266e+24 2.90444e+24 
2.90444e+24 3.04266e+24 3.01691e+24 2.85231e+24 2.85686e+24 3.01388e+24 
2.96366e+24 2.64545e+24 2.3028e+24 2.03319e+24 1.88155e+24 1.82182e+24 
1.70784e+24 1.55324e+24 1.49152e+24 1.50371e+24 1.49488e+24 1.46574e+24 
1.45412e+24 1.45945e+24 1.46792e+24 1.47442e+24 1.47642e+24 1.46994e+24 
1.45173e+24 1.42769e+24 1.40664e+24 1.39011e+24 1.37699e+24 1.36714e+24 
1.36021e+24 1.3733e+24 1.39036e+24 1.41119e+24 1.43355e+24 1.45341e+24 
1.46738e+24 1.47304e+24 1.46938e+24 1.46048e+24 1.45789e+24 1.46714e+24 
1.4736e+24 1.47219e+24 1.49454e+24 1.56503e+24 1.67476e+24 1.7997e+24 
1.88061e+24 1.9668e+24 2.34248e+24 2.96031e+24 3.20944e+24 2.96898e+24 
2.76597e+24 2.79781e+24 2.92809e+24 3.04557e+24 3.1336e+24 3.19234e+24 
3.19234e+24 3.1336e+24 3.04556e+24 2.92809e+24 2.7978e+24 2.76596e+24 
2.96897e+24 3.20943e+24 2.96031e+24 2.34248e+24 1.9668e+24 1.8806e+24 
1.79968e+24 1.67473e+24 1.565e+24 1.49449e+24 1.47213e+24 1.47352e+24 
1.46704e+24 1.45779e+24 1.46039e+24 1.46927e+24 1.47288e+24 1.46728e+24 
1.45351e+24 1.43353e+24 1.41071e+24 1.39029e+24 1.37535e+24 1.36477e+24 
1.35952e+24 1.37318e+24 1.39108e+24 1.41339e+24 1.4367e+24 1.45563e+24 
1.46755e+24 1.47133e+24 1.46699e+24 1.45924e+24 1.45885e+24 1.46989e+24 
1.47476e+24 1.47416e+24 1.52455e+24 1.64238e+24 1.74941e+24 1.84456e+24 
2.032e+24 2.34223e+24 2.79505e+24 3.24155e+24 3.18089e+24 2.7167e+24 
2.70353e+24 3.21783e+24 3.57938e+24 3.61921e+24 3.74612e+24 4.01223e+24 
4.01223e+24 3.74612e+24 3.61921e+24 3.57937e+24 3.21782e+24 2.70352e+24 
2.71668e+24 3.18088e+24 3.24153e+24 2.79504e+24 2.34222e+24 2.03199e+24 
1.84454e+24 1.74938e+24 1.64233e+24 1.52448e+24 1.47407e+24 1.47465e+24 
1.46973e+24 1.45866e+24 1.45907e+24 1.46679e+24 1.47109e+24 1.46735e+24 
1.45563e+24 1.43668e+24 1.41301e+24 1.39096e+24 1.37461e+24 1.36279e+24 
1.35929e+24 1.37435e+24 1.39253e+24 1.41257e+24 1.43523e+24 1.45857e+24 
1.4732e+24 1.47393e+24 1.46849e+24 1.46474e+24 1.46153e+24 1.45951e+24 
1.47262e+24 1.51517e+24 1.5923e+24 1.69243e+24 1.77134e+24 1.88783e+24 
2.30257e+24 2.961e+24 3.24247e+24 2.95706e+24 2.63077e+24 2.66048e+24 
3.28666e+24 4.2579e+24 4.70205e+24 4.58419e+24 4.67044e+24 5.03659e+24 
5.03659e+24 4.67044e+24 4.58419e+24 4.70205e+24 4.25791e+24 3.28666e+24 
2.66048e+24 2.63077e+24 2.95706e+24 3.24247e+24 2.96101e+24 2.30259e+24 
1.88785e+24 1.77136e+24 1.69246e+24 1.59235e+24 1.51524e+24 1.47272e+24 
1.4596e+24 1.46163e+24 1.46487e+24 1.46864e+24 1.47401e+24 1.47326e+24 
1.45871e+24 1.43533e+24 1.41244e+24 1.39247e+24 1.37508e+24 1.361e+24 
1.35912e+24 1.37474e+24 1.39334e+24 1.41343e+24 1.43636e+24 1.4606e+24 
1.47517e+24 1.47428e+24 1.4681e+24 1.46512e+24 1.46053e+24 1.45735e+24 
1.48506e+24 1.55337e+24 1.62539e+24 1.70442e+24 1.85331e+24 2.134e+24 
2.64545e+24 3.21033e+24 3.18201e+24 2.63096e+24 2.65846e+24 3.51867e+24 
4.47253e+24 5.07627e+24 5.16142e+24 4.98028e+24 5.02923e+24 5.278e+24 
5.278e+24 5.02923e+24 4.98028e+24 5.16142e+24 5.07627e+24 4.47254e+24 
3.51868e+24 2.65846e+24 2.63096e+24 3.18201e+24 3.21034e+24 2.64546e+24 
2.13402e+24 1.85334e+24 1.70447e+24 1.62546e+24 1.55347e+24 1.4852e+24 
1.45749e+24 1.46069e+24 1.46532e+24 1.46832e+24 1.47445e+24 1.47529e+24 
1.46073e+24 1.43649e+24 1.41346e+24 1.3933e+24 1.37475e+24 1.35921e+24 
1.35885e+24 1.37391e+24 1.39323e+24 1.41697e+24 1.44161e+24 1.46125e+24 
1.4713e+24 1.47079e+24 1.4644e+24 1.45832e+24 1.45666e+24 1.46844e+24 
1.50882e+24 1.57178e+24 1.62039e+24 1.7022e+24 2.0111e+24 2.55647e+24 
2.96271e+24 2.96891e+24 2.71685e+24 2.65974e+24 3.51775e+24 5.05373e+24 
5.67131e+24 5.07809e+24 4.66933e+24 4.86792e+24 5.05258e+24 4.97924e+24 
4.97924e+24 5.05257e+24 4.86791e+24 4.66932e+24 5.07808e+24 5.6713e+24 
5.05372e+24 3.51775e+24 2.65974e+24 2.71684e+24 2.9689e+24 2.96269e+24 
2.55645e+24 2.01108e+24 1.70215e+24 1.62031e+24 1.57171e+24 1.50874e+24 
1.46833e+24 1.45652e+24 1.45819e+24 1.46429e+24 1.47068e+24 1.47117e+24 
1.46113e+24 1.44159e+24 1.41707e+24 1.39319e+24 1.37323e+24 1.35744e+24 
1.35849e+24 1.3738e+24 1.39369e+24 1.41847e+24 1.4435e+24 1.46203e+24 
1.47101e+24 1.47028e+24 1.46268e+24 1.45522e+24 1.45814e+24 1.47979e+24 
1.5206e+24 1.57511e+24 1.6404e+24 1.78921e+24 2.19797e+24 2.78226e+24 
3.0128e+24 2.76575e+24 2.70352e+24 3.28578e+24 4.47148e+24 5.67117e+24 
5.62282e+24 4.57305e+24 4.50429e+24 5.5592e+24 6.09303e+24 5.79134e+24 
5.79134e+24 6.09302e+24 5.55919e+24 4.50428e+24 4.57303e+24 5.62281e+24 
5.67115e+24 4.47147e+24 3.28577e+24 2.70352e+24 2.76573e+24 3.01277e+24 
2.78224e+24 2.19794e+24 1.78916e+24 1.64032e+24 1.57501e+24 1.52049e+24 
1.47964e+24 1.45796e+24 1.45503e+24 1.4625e+24 1.47014e+24 1.47084e+24 
1.46183e+24 1.44344e+24 1.41868e+24 1.39366e+24 1.37262e+24 1.35591e+24 
1.35809e+24 1.37473e+24 1.39491e+24 1.41717e+24 1.44093e+24 1.46333e+24 
1.47581e+24 1.47386e+24 1.46421e+24 1.45768e+24 1.46435e+24 1.48697e+24 
1.51994e+24 1.5721e+24 1.69334e+24 1.95557e+24 2.36848e+24 2.75806e+24 
2.85675e+24 2.79854e+24 3.21877e+24 4.25798e+24 5.07618e+24 5.07887e+24 
4.57395e+24 4.33443e+24 5.39688e+24 7.32641e+24 8.06547e+24 7.54938e+24 
7.54938e+24 8.06547e+24 7.32642e+24 5.39689e+24 4.33444e+24 4.57395e+24 
5.07886e+24 5.07617e+24 4.25798e+24 3.21878e+24 2.79854e+24 2.85676e+24 
2.75808e+24 2.36852e+24 1.95561e+24 1.69339e+24 1.57218e+24 1.52006e+24 
1.48709e+24 1.46447e+24 1.4578e+24 1.46436e+24 1.47404e+24 1.47592e+24 
1.4633e+24 1.44097e+24 1.41752e+24 1.39497e+24 1.37328e+24 1.35477e+24 
1.35761e+24 1.37474e+24 1.39536e+24 1.41768e+24 1.44144e+24 1.46415e+24 
1.47664e+24 1.47397e+24 1.46351e+24 1.45749e+24 1.46698e+24 1.49221e+24 
1.52409e+24 1.58199e+24 1.74e+24 2.05604e+24 2.46549e+24 2.77845e+24 
2.85232e+24 2.92893e+24 3.58042e+24 4.70223e+24 5.16143e+24 4.6702e+24 
4.50527e+24 5.39698e+24 7.06356e+24 8.6745e+24 8.92711e+24 8.18379e+24 
8.18378e+24 8.9271e+24 8.67449e+24 7.06356e+24 5.39699e+24 4.50528e+24 
4.67019e+24 5.16142e+24 4.70223e+24 3.58042e+24 2.92894e+24 2.85232e+24 
2.77847e+24 2.46553e+24 2.05609e+24 1.74006e+24 1.58208e+24 1.52422e+24 
1.49236e+24 1.46713e+24 1.45764e+24 1.4637e+24 1.47419e+24 1.47679e+24 
1.46412e+24 1.44148e+24 1.41806e+24 1.39544e+24 1.3732e+24 1.35402e+24 
1.35712e+24 1.37366e+24 1.39488e+24 1.42051e+24 1.44581e+24 1.46424e+24 
1.47247e+24 1.46989e+24 1.45997e+24 1.45342e+24 1.46526e+24 1.49718e+24 
1.53516e+24 1.60086e+24 1.76548e+24 2.07429e+24 2.505e+24 2.90134e+24 
3.01595e+24 3.04543e+24 3.61927e+24 4.58342e+24 4.97935e+24 4.86785e+24 
5.55926e+24 7.32562e+24 8.67362e+24 8.82584e+24 8.35864e+24 7.81315e+24 
7.81314e+24 8.35861e+24 8.82581e+24 8.67359e+24 7.3256e+24 5.55925e+24 
4.86784e+24 4.97933e+24 4.5834e+24 3.61927e+24 3.04542e+24 3.01593e+24 
2.90131e+24 2.50497e+24 2.07424e+24 1.7654e+24 1.60077e+24 1.53506e+24 
1.49706e+24 1.46511e+24 1.45324e+24 1.45982e+24 1.4698e+24 1.47236e+24 
1.46404e+24 1.44572e+24 1.4208e+24 1.39491e+24 1.37217e+24 1.35363e+24 
1.35671e+24 1.3735e+24 1.39504e+24 1.42103e+24 1.44643e+24 1.46452e+24 
1.47231e+24 1.46947e+24 1.45933e+24 1.45305e+24 1.46668e+24 1.50075e+24 
1.5383e+24 1.60688e+24 1.79134e+24 2.12594e+24 2.55145e+24 2.91822e+24 
3.04166e+24 3.13342e+24 3.74613e+24 4.66962e+24 5.02825e+24 5.05246e+24 
6.09304e+24 8.06464e+24 8.9262e+24 8.35859e+24 8.32967e+24 9.03671e+24 
9.03671e+24 8.32966e+24 8.35857e+24 8.92616e+24 8.06461e+24 6.09304e+24 
5.05245e+24 5.02823e+24 4.6696e+24 3.74612e+24 3.1334e+24 3.04163e+24 
2.91819e+24 2.55142e+24 2.12589e+24 1.79125e+24 1.60678e+24 1.5382e+24 
1.50062e+24 1.46651e+24 1.45286e+24 1.45915e+24 1.46936e+24 1.47219e+24 
1.46431e+24 1.44633e+24 1.42127e+24 1.39508e+24 1.37219e+24 1.35359e+24 
1.35643e+24 1.37439e+24 1.39593e+24 1.41898e+24 1.44291e+24 1.46507e+24 
1.4767e+24 1.47317e+24 1.46189e+24 1.45666e+24 1.47129e+24 1.50262e+24 
1.53288e+24 1.59824e+24 1.81625e+24 2.21547e+24 2.60884e+24 2.81495e+24 
2.90441e+24 3.19312e+24 4.01321e+24 5.03674e+24 5.27798e+24 4.98007e+24 
5.79229e+24 7.54946e+24 8.18377e+24 7.81398e+24 9.03757e+24 1.15795e+25 
1.15795e+25 9.03761e+24 7.81399e+24 8.18375e+24 7.54944e+24 5.79229e+24 
4.98007e+24 5.27797e+24 5.03673e+24 4.01322e+24 3.19313e+24 2.90442e+24 
2.81497e+24 2.60888e+24 2.21552e+24 1.81631e+24 1.59832e+24 1.533e+24 
1.50276e+24 1.47144e+24 1.45681e+24 1.46206e+24 1.47336e+24 1.47684e+24 
1.46507e+24 1.44294e+24 1.41925e+24 1.39601e+24 1.37334e+24 1.35385e+24 
1.35626e+24 1.37431e+24 1.39593e+24 1.419e+24 1.44291e+24 1.46506e+24 
1.4767e+24 1.47317e+24 1.46189e+24 1.45666e+24 1.47129e+24 1.50262e+24 
1.53288e+24 1.59824e+24 1.81625e+24 2.21547e+24 2.60884e+24 2.81495e+24 
2.90442e+24 3.19312e+24 4.01321e+24 5.03674e+24 5.27798e+24 4.98007e+24 
5.79229e+24 7.54946e+24 8.18377e+24 7.81398e+24 9.03757e+24 1.15795e+25 
1.15795e+25 9.03761e+24 7.814e+24 8.18376e+24 7.54944e+24 5.79229e+24 
4.98007e+24 5.27797e+24 5.03673e+24 4.01322e+24 3.19313e+24 2.90442e+24 
2.81497e+24 2.60888e+24 2.21552e+24 1.81631e+24 1.59832e+24 1.533e+24 
1.50276e+24 1.47144e+24 1.45681e+24 1.46206e+24 1.47335e+24 1.47684e+24 
1.46508e+24 1.44295e+24 1.41921e+24 1.396e+24 1.37354e+24 1.3543e+24 
1.35625e+24 1.37328e+24 1.39506e+24 1.42108e+24 1.44642e+24 1.4645e+24 
1.47231e+24 1.46947e+24 1.45933e+24 1.45305e+24 1.46668e+24 1.50075e+24 
1.5383e+24 1.60688e+24 1.79134e+24 2.12594e+24 2.55145e+24 2.91822e+24 
3.04166e+24 3.13342e+24 3.74613e+24 4.66962e+24 5.02825e+24 5.05246e+24 
6.09305e+24 8.06463e+24 8.9262e+24 8.35861e+24 8.32968e+24 9.03668e+24 
9.03668e+24 8.32967e+24 8.35859e+24 8.92616e+24 8.0646e+24 6.09304e+24 
5.05246e+24 5.02823e+24 4.6696e+24 3.74612e+24 3.13341e+24 3.04164e+24 
2.91819e+24 2.55143e+24 2.12589e+24 1.79125e+24 1.60678e+24 1.5382e+24 
1.50062e+24 1.46651e+24 1.45287e+24 1.45916e+24 1.46934e+24 1.47218e+24 
1.46436e+24 1.44634e+24 1.42114e+24 1.39506e+24 1.37277e+24 1.35493e+24 
1.35649e+24 1.37335e+24 1.39489e+24 1.42058e+24 1.4458e+24 1.46422e+24 
1.47247e+24 1.4699e+24 1.45997e+24 1.45342e+24 1.46526e+24 1.49718e+24 
1.53516e+24 1.60086e+24 1.76548e+24 2.07429e+24 2.505e+24 2.90134e+24 
3.01596e+24 3.04544e+24 3.61928e+24 4.58342e+24 4.97935e+24 4.86786e+24 
5.55926e+24 7.32561e+24 8.67363e+24 8.82587e+24 8.35866e+24 7.81313e+24 
7.81312e+24 8.35864e+24 8.82584e+24 8.67359e+24 7.3256e+24 5.55926e+24 
4.86785e+24 4.97933e+24 4.5834e+24 3.61927e+24 3.04542e+24 3.01593e+24 
2.90131e+24 2.50497e+24 2.07424e+24 1.7654e+24 1.60077e+24 1.53506e+24 
1.49706e+24 1.46511e+24 1.45325e+24 1.45982e+24 1.46977e+24 1.47235e+24 
1.46411e+24 1.44573e+24 1.4206e+24 1.39489e+24 1.3731e+24 1.35575e+24 
1.35698e+24 1.37442e+24 1.39537e+24 1.41776e+24 1.44144e+24 1.46412e+24 
1.47665e+24 1.47398e+24 1.46351e+24 1.45748e+24 1.46698e+24 1.49221e+24 
1.52409e+24 1.58199e+24 1.74e+24 2.05604e+24 2.46549e+24 2.77845e+24 
2.85232e+24 2.92893e+24 3.58042e+24 4.70223e+24 5.16143e+24 4.67021e+24 
4.50528e+24 5.39697e+24 7.06356e+24 8.67452e+24 8.92715e+24 8.1838e+24 
8.1838e+24 8.92714e+24 8.67452e+24 7.06356e+24 5.39698e+24 4.50529e+24 
4.67021e+24 5.16142e+24 4.70223e+24 3.58043e+24 2.92894e+24 2.85232e+24 
2.77847e+24 2.46553e+24 2.05609e+24 1.74006e+24 1.58208e+24 1.52422e+24 
1.49236e+24 1.46713e+24 1.45765e+24 1.4637e+24 1.47415e+24 1.47679e+24 
1.46421e+24 1.4415e+24 1.4178e+24 1.39541e+24 1.37441e+24 1.35676e+24 
1.35765e+24 1.37449e+24 1.39492e+24 1.41723e+24 1.44093e+24 1.46332e+24 
1.47581e+24 1.47386e+24 1.46421e+24 1.45767e+24 1.46435e+24 1.48697e+24 
1.51994e+24 1.5721e+24 1.69334e+24 1.95557e+24 2.36848e+24 2.75806e+24 
2.85675e+24 2.79854e+24 3.21878e+24 4.25797e+24 5.07618e+24 5.07888e+24 
4.57396e+24 4.33442e+24 5.39688e+24 7.32643e+24 8.06549e+24 7.5494e+24 
7.5494e+24 8.0655e+24 7.32644e+24 5.39689e+24 4.33443e+24 4.57396e+24 
5.07888e+24 5.07617e+24 4.25797e+24 3.21879e+24 2.79855e+24 2.85676e+24 
2.75807e+24 2.36852e+24 1.95562e+24 1.69339e+24 1.57218e+24 1.52006e+24 
1.48709e+24 1.46447e+24 1.45781e+24 1.46436e+24 1.474e+24 1.47592e+24 
1.4634e+24 1.44098e+24 1.41723e+24 1.39495e+24 1.37465e+24 1.35784e+24 
1.35846e+24 1.37372e+24 1.39368e+24 1.41849e+24 1.4435e+24 1.46203e+24 
1.471e+24 1.47028e+24 1.46268e+24 1.45522e+24 1.45814e+24 1.47979e+24 
1.5206e+24 1.57511e+24 1.6404e+24 1.78922e+24 2.19798e+24 2.78226e+24 
3.01279e+24 2.76576e+24 2.70353e+24 3.28578e+24 4.47148e+24 5.67118e+24 
5.62284e+24 4.57305e+24 4.50429e+24 5.5592e+24 6.09303e+24 5.79134e+24 
5.79134e+24 6.09303e+24 5.55919e+24 4.50428e+24 4.57304e+24 5.62282e+24 
5.67116e+24 4.47147e+24 3.28577e+24 2.70353e+24 2.76574e+24 3.01277e+24 
2.78224e+24 2.19795e+24 1.78916e+24 1.64032e+24 1.57501e+24 1.52049e+24 
1.47964e+24 1.45796e+24 1.45503e+24 1.4625e+24 1.47011e+24 1.47085e+24 
1.46193e+24 1.44343e+24 1.41839e+24 1.39366e+24 1.37399e+24 1.35896e+24 
1.35939e+24 1.37409e+24 1.39322e+24 1.41693e+24 1.44162e+24 1.46127e+24 
1.47129e+24 1.47078e+24 1.4644e+24 1.45833e+24 1.45666e+24 1.46844e+24 
1.50882e+24 1.57178e+24 1.62039e+24 1.7022e+24 2.01111e+24 2.55647e+24 
2.96271e+24 2.96892e+24 2.71686e+24 2.65975e+24 3.51775e+24 5.05373e+24 
5.67133e+24 5.0781e+24 4.66934e+24 4.86793e+24 5.05258e+24 4.97925e+24 
4.97925e+24 5.05257e+24 4.86792e+24 4.66932e+24 5.07809e+24 5.67131e+24 
5.05372e+24 3.51774e+24 2.65974e+24 2.71685e+24 2.9689e+24 2.96269e+24 
2.55645e+24 2.01108e+24 1.70216e+24 1.62032e+24 1.5717e+24 1.50874e+24 
1.46833e+24 1.45652e+24 1.45819e+24 1.46428e+24 1.47066e+24 1.47119e+24 
1.46121e+24 1.44157e+24 1.41683e+24 1.39321e+24 1.37443e+24 1.36007e+24 
1.36033e+24 1.37523e+24 1.39332e+24 1.41332e+24 1.43637e+24 1.46064e+24 
1.47516e+24 1.47426e+24 1.4681e+24 1.46512e+24 1.46053e+24 1.45735e+24 
1.48506e+24 1.55337e+24 1.62539e+24 1.70443e+24 1.85332e+24 2.134e+24 
2.64544e+24 3.21034e+24 3.18202e+24 2.63097e+24 2.65846e+24 3.51867e+24 
4.47254e+24 5.07628e+24 5.16143e+24 4.9803e+24 5.02924e+24 5.27801e+24 
5.27801e+24 5.02924e+24 4.9803e+24 5.16143e+24 5.07628e+24 4.47255e+24 
3.51868e+24 2.65846e+24 2.63097e+24 3.18202e+24 3.21034e+24 2.64545e+24 
2.13402e+24 1.85335e+24 1.70447e+24 1.62545e+24 1.55347e+24 1.4852e+24 
1.4575e+24 1.4607e+24 1.46531e+24 1.46831e+24 1.47445e+24 1.47532e+24 
1.46077e+24 1.43644e+24 1.41329e+24 1.39337e+24 1.37566e+24 1.36116e+24 
1.36107e+24 1.37511e+24 1.39251e+24 1.41241e+24 1.43524e+24 1.45863e+24 
1.4732e+24 1.47391e+24 1.46849e+24 1.46474e+24 1.46153e+24 1.45951e+24 
1.47262e+24 1.51516e+24 1.5923e+24 1.69244e+24 1.77134e+24 1.88783e+24 
2.30257e+24 2.961e+24 3.24248e+24 2.95706e+24 2.63077e+24 2.66049e+24 
3.28666e+24 4.2579e+24 4.70206e+24 4.5842e+24 4.67045e+24 5.0366e+24 
5.0366e+24 4.67045e+24 4.5842e+24 4.70206e+24 4.25791e+24 3.28667e+24 
2.66049e+24 2.63077e+24 2.95706e+24 3.24248e+24 2.96101e+24 2.30258e+24 
1.88785e+24 1.77137e+24 1.69247e+24 1.59234e+24 1.51524e+24 1.47272e+24 
1.45961e+24 1.46163e+24 1.46486e+24 1.46862e+24 1.47402e+24 1.4733e+24 
1.45872e+24 1.43527e+24 1.41234e+24 1.39256e+24 1.37565e+24 1.36218e+24 
1.36165e+24 1.37412e+24 1.39107e+24 1.41319e+24 1.4367e+24 1.4557e+24 
1.46755e+24 1.47132e+24 1.46698e+24 1.45925e+24 1.45885e+24 1.46989e+24 
1.47477e+24 1.47416e+24 1.52454e+24 1.64239e+24 1.74942e+24 1.84456e+24 
2.03201e+24 2.34224e+24 2.79506e+24 3.24155e+24 3.18089e+24 2.71671e+24 
2.70354e+24 3.21783e+24 3.57937e+24 3.61922e+24 3.74613e+24 4.01222e+24 
4.01222e+24 3.74612e+24 3.61921e+24 3.57937e+24 3.21782e+24 2.70353e+24 