# vtk DataFile Version 2.0 
Lid_driven streamfuntion-vorticity 
ASCII 
DATASET RECTILINEAR_GRID 
DIMENSIONS 41 41 1
X_COORDINATES 41 float 
0 
0.025 0.05 0.075 0.1 0.125 0.15 
0.175 0.2 0.225 0.25 0.275 0.3 
0.325 0.35 0.375 0.4 0.425 0.45 
0.475 0.5 0.525 0.55 0.575 0.6 
0.625 0.65 0.675 0.7 0.725 0.75 
0.775 0.8 0.825 0.85 0.875 0.9 
0.925 0.95 0.975 1 
Y_COORDINATES 41 float 
0 
0.025 0.05 0.075 0.1 0.125 0.15 
0.175 0.2 0.225 0.25 0.275 0.3 
0.325 0.35 0.375 0.4 0.425 0.45 
0.475 0.5 0.525 0.55 0.575 0.6 
0.625 0.65 0.675 0.7 0.725 0.75 
0.775 0.8 0.825 0.85 0.875 0.9 
0.925 0.95 0.975 1 
Z_COORDINATES 1 float 
0 

POINT_DATA 1681
SCALARS sdfsdfsd float
LOOKUP_TABLE default 
0.5 
0.214872 
0.0107088 
-0.115306 
-0.1795 
-0.205075 
-0.213054 
-0.216089 
-0.218291 
-0.219584 
-0.220061 
-0.221074 
-0.223681 
-0.227416 
-0.231031 
-0.234115 
-0.237519 
-0.242211 
-0.248096 
-0.254235 
-0.260056 
-0.266028 
-0.273035 
-0.281307 
-0.290207 
-0.299066 
-0.307984 
-0.317684 
-0.328638 
-0.34054 
-0.35268 
-0.364766 
-0.377232 
-0.39074 
-0.405419 
-0.420625 
-0.435453 
-0.449565 
-0.463726 
-0.479754 
-0.5 
0.5 0.216269 0.014377 -0.111045 -0.175922 -0.202566 -0.211211 -0.214269 -0.216125 -0.217085 -0.217367 -0.218182 -0.220434 -0.223675 -0.226793 -0.229453 -0.232458 -0.236685 -0.242036 -0.247646 -0.25301 -0.258588 -0.265214 -0.273103 -0.281669 -0.290296 -0.299098 -0.308765 -0.31975 -0.331769 -0.344156 -0.356638 -0.369629 -0.383753 -0.399127 -0.415118 -0.430837 -0.445955 -0.461252 -0.478586 -0.5 0.5 0.222559 0.0233793 -0.101942 -0.168437 -0.196944 -0.206538 -0.20938 -0.210369 -0.210422 -0.209931 -0.209877 -0.210951 -0.212779 -0.214488 -0.215854 -0.217567 -0.220362 -0.224161 -0.228267 -0.232298 -0.236682 -0.242154 -0.248924 -0.256522 -0.264464 -0.272882 -0.282403 -0.293445 -0.305788 -0.318878 -0.332492 -0.346994 -0.362931 -0.380387 -0.398766 -0.417225 -0.435423 -0.454053 -0.474859 -0.5 0.5 0.22956 0.033208 -0.0919992 -0.160009 -0.190115 -0.200258 -0.202403 -0.201993 -0.200552 -0.198629 -0.19698 -0.196109 -0.195746 -0.195276 -0.194581 -0.194231 -0.194815 -0.196299 -0.198179 -0.200208 -0.202775 -0.206505 -0.21161 -0.21777 -0.224653 -0.232425 -0.241645 -0.252706 -0.265485 -0.279576 -0.294831 -0.31157 -0.330252 -0.350939 -0.37309 -0.395921 -0.419048 -0.442996 -0.469258 -0.5 0.5 0.235137 0.0414575 -0.0833482 -0.152177 -0.183043 -0.193025 -0.193973 -0.191755 -0.18834 -0.184398 -0.180542 -0.177173 -0.174138 -0.171029 -0.16781 -0.164954 -0.162951 -0.161811 -0.161193 -0.160954 -0.161442 -0.163192 -0.166421 -0.170941 -0.176562 -0.183485 -0.192228 -0.203184 -0.216341 -0.231461 -0.24849 -0.267737 -0.289608 -0.314167 -0.340947 -0.369222 -0.398548 -0.429226 -0.462416 -0.5 0.5 0.239252 0.0479679 -0.076168 -0.14511 -0.175918 -0.18511 -0.184489 -0.1802 -0.174499 -0.168154 -0.161738 -0.155645 -0.149827 -0.144021 -0.138238 -0.132896 -0.128421 -0.12486 -0.12197 -0.119662 -0.118239 -0.118161 -0.119648 -0.122603 -0.126936 -0.132883 -0.140948 -0.151558 -0.164823 -0.180671 -0.199172 -0.220675 -0.245595 -0.274041 -0.305637 -0.339717 -0.37577 -0.413866 -0.454806 -0.5 0.5 
0.242947 
0.0538451 
-0.0695068 
-0.138192 
-0.168513 
-0.176588 
-0.174208 
-0.167725 
-0.159612 
-0.150751 
-0.141749 
-0.133048 
-0.124695 
-0.116518 
-0.108556 
-0.101184 
-0.0947843 
-0.0894116 
-0.0848604 
-0.081044 
-0.0782083 
-0.076743 
-0.0768511 
-0.0784846 
-0.0816134 
-0.0864972 
-0.0936487 
-0.103546 
-0.116433 
-0.132413 
-0.151707 
-0.174766 
-0.202085 
-0.233876 
-0.269879 
-0.309502 
-0.352183 
-0.397773 
-0.446732 
-0.5 
0.5 0.247111 0.060179 -0.0623696 -0.130763 -0.160563 -0.167497 -0.163345 -0.154677 -0.14421 -0.132981 -0.121665 -0.110759 -0.100386 -0.0904433 -0.0809792 -0.0723174 -0.0647823 -0.0584016 -0.052964 -0.0483505 -0.0447313 -0.0424143 -0.0415652 -0.0421513 -0.0441724 -0.0479008 -0.0538607 -0.062592 -0.0744747 -0.0897996 -0.108975 -0.132615 -0.161365 -0.195603 -0.235235 -0.279769 -0.328616 -0.38144 -0.438381 -0.5 0.5 0.251908 0.0673423 -0.0543616 -0.122563 -0.152013 -0.157968 -0.152172 -0.141459 -0.128861 -0.115608 -0.102448 -0.0899068 -0.0781688 -0.0671857 -0.0569998 -0.0478591 -0.0399973 -0.0333863 -0.0277864 -0.0230296 -0.0191955 -0.0164949 -0.0150385 -0.0147909 -0.015765 -0.0182322 -0.0227194 -0.029821 -0.040053 -0.0539036 -0.0719977 -0.0951611 -0.124261 -0.159912 -0.202247 -0.250928 -0.30537 -0.365074 -0.429875 -0.5 0.5 0.257026 0.0751147 -0.0456503 -0.113752 -0.143055 -0.148266 -0.141063 -0.128571 -0.114185 -0.0993593 -0.0848981 -0.071336 -0.0588934 -0.0475652 -0.0373702 -0.0284538 -0.0209306 -0.0146986 -0.00948325 -0.0050655 -0.00142959 0.00131995 0.00313596 0.00406517 0.00409107 0.00295702 0.000152037 -0.00495405 -0.012999 -0.0246655 -0.0408096 -0.0625077 -0.0909075 -0.126935 -0.171031 -0.223071 -0.282526 -0.348756 -0.421295 -0.5 0.5 0.262215 0.0831992 -0.0365454 -0.104623 -0.133976 -0.138716 -0.130423 -0.116511 -0.100751 -0.0848238 -0.0695859 -0.0555607 -0.0429852 -0.0318786 -0.0222193 -0.0140341 -0.00730578 -0.00185346 0.00262968 0.00640658 0.00958218 0.0121554 0.0141439 0.0156102 0.0165434 0.0167174 0.01566 0.012734 0.00720985 -0.00176698 -0.0152783 -0.0346713 -0.0614227 -0.0968437 -0.141762 -0.196353 -0.260201 -0.332568 -0.41269 -0.5 0.5 0.267539 0.0915552 -0.0271604 -0.0953298 -0.124962 -0.129548 -0.120547 -0.105627 -0.0889186 -0.0723278 -0.0567634 -0.0427292 -0.03046 -0.0199779 -0.0112088 -0.00405935 0.00161525 0.00606933 0.00963499 0.012608 0.0151675 0.0174032 0.0193932 0.0212207 0.0228918 0.024227 0.0248165 0.0240503 0.0211499 0.0151312 0.00471401 -0.0117203 -0.0360103 -0.0699147 -0.114733 -0.171025 -0.238577 -0.316606 -0.404083 -0.5 0.5 
0.273209 
0.100346 
-0.0173849 
-0.0858172 
-0.116013 
-0.120819 
-0.111527 
-0.0960239 
-0.0787701 
-0.061895 
-0.0463652 
-0.0326624 
-0.0210023 
-0.0113922 
-0.00370038 
0.0022765 
0.00679536 
0.0101731 
0.012759 
0.0148684 
0.0167354 
0.018522 
0.0203587 
0.0223541 
0.0245429 
0.0268062 
0.0288162 
0.0300232 
0.0296492 
0.026636 
0.0195506 
0.0065233 
-0.01466 
-0.046253 
-0.0901026 
-0.147252 
-0.21778 
-0.300941 
-0.395488 
-0.5 
0.5 0.279318 0.109707 -0.00706662 -0.0759493 -0.107031 -0.112465 -0.103319 -0.087643 -0.0702078 -0.053363 -0.0381414 -0.0250015 -0.0141284 -0.00550355 0.00105988 0.00585874 0.00924299 0.0115792 0.0132244 0.0145006 0.015676 0.0169644 0.0185391 0.0205361 0.0230271 0.0259624 0.029109 0.0320046 0.0339179 0.0337769 0.0300538 0.0206677 0.00303729 -0.0256157 -0.067752 -0.12499 -0.197808 -0.285587 -0.386921 -0.5 0.5 0.285775 0.119619 0.00382969 -0.0656689 -0.0979634 -0.104447 -0.0958826 -0.0804285 -0.0631345 -0.0465712 -0.0318454 -0.0193956 -0.00937209 -0.00172788 0.00377019 0.00749335 0.0098645 0.0112862 0.0121144 0.0126647 0.0132205 0.0140283 0.015293 0.0171776 0.0197945 0.0231665 0.0271609 0.03142 0.0352961 0.0377601 0.0372542 0.0315417 0.0177037 -0.00757086 -0.047408 -0.104089 -0.178595 -0.27053 -0.378394 -0.5 0.5 0.292448 0.129971 0.0152227 -0.0550329 -0.0888559 -0.0968082 -0.0892614 -0.0744085 -0.057542 -0.0414487 -0.0273218 -0.015591 -0.00637608 0.000393203 0.00498305 0.00781742 0.00937073 0.0100675 0.0102542 0.0102307 0.0102803 0.0106659 0.0116134 0.0133107 0.0159126 0.0195148 0.0240843 0.0293751 0.0348485 0.0395652 0.0420014 0.0398306 0.0298455 0.00821605 -0.028881 -0.0844648 -0.160121 -0.25578 -0.369918 -0.5 0.5 0.299299 0.14069 0.027032 -0.0441073 -0.0797541 -0.0895822 -0.0834841 -0.069602 -0.0534193 -0.0379303 -0.0244331 -0.0133709 -0.00484685 0.00122296 0.00512158 0.00730157 0.00826532 0.00844523 0.00817334 0.00772921 0.00738645 0.00741175 0.0080434 0.00949258 0.0119585 0.015609 0.0205067 0.026516 0.0332197 0.0398027 0.0448311 0.0459582 0.0397524 0.0219008 -0.0121259 -0.0661446 -0.142443 -0.241385 -0.361512 -0.5 0.5 0.30638 0.151794 0.0392761 -0.032845 -0.0705732 -0.082655 -0.0784205 -0.0658666 -0.050604 -0.0358202 -0.0229412 -0.0124552 -0.00447012 0.0010989 0.00453499 0.00629485 0.00688525 0.006734 0.00615756 0.00541671 0.00477187 0.0044854 0.00480176 0.0059544 0.00818848 0.0117424 0.0167678 0.0232322 0.0308404 0.0389198 0.0461695 0.0502869 0.0476888 0.0336367 0.00291074 -0.0491445 -0.12561 -0.227395 -0.353207 -0.5 0.5 
0.313734 
0.163342 
0.0520608 
-0.0210781 
-0.0610838 
-0.0757497 
-0.0737651 
-0.0628839 
-0.0487723 
-0.0347903 
-0.0225145 
-0.0125131 
-0.00492404 
0.000323083 
0.00349579 
0.00503345 
0.00542697 
0.00509002 
0.00432563 
0.00338176 
0.00250733 
0.00195678 
0.00197619 
0.00281934 
0.00477653 
0.00815322 
0.013181 
0.0199182 
0.0281819 
0.0374447 
0.0465637 
0.0533336 
0.0540944 
0.0437553 
0.0164447 
-0.0333513 
-0.109584 
-0.213821 
-0.345035 
-0.5 
0.5 0.32133 0.175358 0.0654833 -0.00863097 -0.0510403 -0.0685683 -0.0691899 -0.0603196 -0.0476024 -0.0345432 -0.0228834 -0.0133041 -0.00600094 -0.000935423 0.00212983 0.00360035 0.00393601 0.00352938 0.0026729 0.00160902 0.000580152 -0.000167035 -0.000387825 0.000188133 0.00189196 0.00508951 0.0100817 0.0170023 0.0257637 0.035972 0.0466494 0.0557265 0.0595373 0.0527211 0.0288139 -0.0185533 -0.0942627 -0.200634 -0.337004 -0.5 0.5 0.329102 0.187806 0.0795614 0.00457623 -0.0403044 -0.0609278 -0.0644904 -0.0579742 -0.0469238 -0.03495 -0.0239627 -0.0147822 -0.00769009 -0.00269993 0.000381371 0.00191274 0.00231184 0.0019439 0.00109155 -2.74881e-06 -0.00109704 -0.00194934 -0.00231721 -0.00191802 -0.000386528 0.00269492 0.00768526 0.0147776 0.0239583 0.0349458 0.0469199 0.0579705 0.064487 0.0609247 0.0403017 -0.00457859 -0.0795633 -0.187807 -0.329103 -0.5 0.5 0.337004 0.200633 0.0942608 0.018551 -0.0288166 -0.0527242 -0.0595407 -0.0557302 -0.0466533 -0.0359761 -0.0257681 -0.017007 -0.0100866 -0.00509451 -0.0018971 -0.000193399 0.000382464 0.000161605 -0.000585623 -0.0016145 -0.00267838 -0.00353481 -0.00394137 -0.00360561 -0.00213498 0.000930425 0.00599611 0.0132995 0.022879 0.034539 0.0475985 0.0603159 0.0691865 0.0685652 0.0510375 0.00862859 -0.0654852 -0.175359 -0.321331 -0.5 0.5 0.345034 0.21382 0.109583 0.033349 -0.0164474 -0.0437584 -0.0540978 -0.0533373 -0.0465676 -0.0374489 -0.0281863 -0.0199228 -0.0131858 -0.00815818 -0.00478164 -0.00282457 -0.00198151 -0.00196217 -0.00251276 -0.00338721 -0.00433106 -0.00509541 -0.00543229 -0.00503868 -0.00350089 -0.000328044 0.00491925 0.0125085 0.0225101 0.0347862 0.0487684 0.0628803 0.0737617 0.0757466 0.061081 0.0210757 -0.0520628 -0.163344 -0.313734 -0.5 0.5 0.353207 0.227393 0.125608 0.0491423 -0.00291339 -0.0336397 -0.0476921 -0.0502905 -0.0461734 -0.0389239 -0.0308448 -0.0232368 -0.0167726 -0.0117473 -0.00819352 -0.00595956 -0.00480702 -0.00449073 -0.00477723 -0.00542208 -0.00616292 -0.00673932 -0.00689051 -0.00630001 -0.00454004 -0.0011038 0.0044654 0.0124507 0.0229368 0.0358161 0.0506002 0.065863 0.0784171 0.0826519 0.0705704 0.0328426 -0.0392781 -0.151796 -0.306381 -0.5 0.5 
0.361511 
0.241384 
0.142441 
0.0661424 
0.0121234 
-0.0219037 
-0.0397557 
-0.0459618 
-0.0448349 
-0.0398067 
-0.033224 
-0.0265205 
-0.0205113 
-0.0156139 
-0.0119635 
-0.00949765 
-0.00804856 
-0.00741698 
-0.00739172 
-0.0077345 
-0.00817861 
-0.00845046 
-0.00827049 
-0.00730664 
-0.00512653 
-0.00122778 
0.00484221 
0.0133664 
0.0244289 
0.0379263 
0.0534155 
0.0695984 
0.0834809 
0.0895792 
0.0797514 
0.0441049 
-0.0270339 
-0.140692 
-0.299299 
-0.5 
0.5 0.369917 0.255779 0.16012 0.0844627 0.0288785 -0.00821892 -0.0298487 -0.039834 -0.0420051 -0.0395692 -0.0348527 -0.0293795 -0.0240889 -0.0195195 -0.0159174 -0.0133157 -0.0116185 -0.0106711 -0.0102855 -0.0102359 -0.0102593 -0.0100726 -0.00937578 -0.00782238 -0.00498789 -0.000397906 0.00637154 0.0155866 0.0273176 0.0414447 0.0575383 0.0744051 0.0892582 0.0968052 0.0888532 0.0550305 -0.0152247 -0.129973 -0.292449 -0.5 0.5 0.378393 0.270529 0.178593 0.104087 0.0474056 0.00756808 -0.0177068 -0.0315451 -0.0372579 -0.037764 -0.0353002 -0.0314243 -0.0271654 -0.0231711 -0.0197992 -0.0171825 -0.0152979 -0.0140333 -0.0132255 -0.0126697 -0.0121194 -0.0112912 -0.00986941 -0.00749816 -0.0037749 0.00172331 0.00936768 0.0193914 0.0318414 0.0465674 0.0631309 0.0804252 0.0958795 0.104444 0.0979607 0.0656666 -0.00383165 -0.119621 -0.285776 -0.5 0.5 0.38692 0.285586 0.197807 0.124988 0.0677497 0.025613 -0.00304027 -0.020671 -0.0300573 -0.0337806 -0.0339218 -0.0320088 -0.0291133 -0.0259668 -0.0230317 -0.0205408 -0.0185438 -0.0169692 -0.0156808 -0.0145055 -0.0132292 -0.011584 -0.00924772 -0.0058634 -0.00106442 0.00549914 0.0141241 0.0249974 0.0381375 0.0533593 0.0702043 0.0876397 0.103316 0.112462 0.107028 0.075947 0.00706467 -0.109709 -0.279319 -0.5 0.5 0.395488 0.30094 0.217779 0.14725 0.0901004 0.0462505 0.0146572 -0.00652642 -0.019554 -0.0266396 -0.0296529 -0.0300272 -0.0288203 -0.0268105 -0.0245473 -0.0223586 -0.0203633 -0.0185266 -0.0167401 -0.0148731 -0.0127636 -0.0101777 -0.0067999 -0.00228096 0.00369603 0.011388 0.0209982 0.0326584 0.0463615 0.0618914 0.0787668 0.0960207 0.111524 0.120816 0.11601 0.0858149 0.0173829 -0.100348 -0.27321 -0.5 0.5 0.404082 0.316605 0.238576 0.171023 0.114731 0.0699123 0.0360076 0.0117173 -0.00471721 -0.0151346 -0.0211535 -0.0240541 -0.0248205 -0.0242311 -0.022896 -0.0212249 -0.0193976 -0.0174076 -0.0151719 -0.0126124 -0.00963941 -0.00607371 -0.00161957 0.00405511 0.0112047 0.0199739 0.0304561 0.0427255 0.0567599 0.0723244 0.0889154 0.105624 0.120544 0.129546 0.124959 0.0953276 0.0271585 -0.0915567 -0.26754 -0.5 0.5 
0.412689 
0.332567 
0.2602 
0.196351 
0.14176 
0.0968415 
0.0614202 
0.0346685 
0.0152753 
0.00176377 
-0.00721325 
-0.0127376 
-0.0156637 
-0.0167213 
-0.0165474 
-0.0156142 
-0.014148 
-0.0121595 
-0.00958635 
-0.00641076 
-0.00263384 
0.00184933 
0.00730171 
0.0140301 
0.0222154 
0.0318748 
0.0429815 
0.0555571 
0.0695825 
0.0848206 
0.100748 
0.116508 
0.13042 
0.138713 
0.133974 
0.104621 
0.0365435 
-0.0832006 
-0.262216 
-0.5 
0.5 0.421295 0.348756 0.282524 0.223069 0.171029 0.126933 0.0909051 0.0625051 0.0408068 0.0246625 0.0129959 0.00495073 -0.000155503 -0.0029606 -0.00409476 -0.00406894 -0.00313979 -0.00132382 0.0014257 0.00506159 0.00947936 0.0146948 0.0209267 0.02845 0.0373665 0.0475617 0.05889 0.0713327 0.0848949 0.0993563 0.114182 0.128568 0.14106 0.148264 0.143053 0.11375 0.0456484 -0.0751161 -0.257027 -0.5 0.5 0.429874 0.365073 0.305369 0.250926 0.202246 0.15991 0.124259 0.0951587 0.0719952 0.0539008 0.0400501 0.0298179 0.0227162 0.0182289 0.0157616 0.0147874 0.015035 0.0164913 0.0191919 0.023026 0.0277828 0.0333827 0.0399937 0.0478556 0.0569964 0.0671824 0.0781656 0.0899037 0.102445 0.115605 0.128858 0.141457 0.15217 0.157965 0.15201 0.122561 0.0543597 -0.0673437 -0.251909 -0.5 0.5 0.438381 0.38144 0.328615 0.279768 0.235233 0.195601 0.161364 0.132613 0.108973 0.0897971 0.0744721 0.0625892 0.0538579 0.0478978 0.0441694 0.0421482 0.041562 0.0424111 0.0447281 0.0483473 0.0529607 0.0583984 0.0647791 0.0723142 0.0809761 0.0904403 0.100383 0.110756 0.121662 0.132978 0.144207 0.154674 0.163343 0.167495 0.160561 0.130761 0.0623677 -0.0601805 -0.247111 -0.5 0.5 0.446732 0.397773 0.352182 0.309501 0.269878 0.233874 0.202084 0.174764 0.151705 0.132411 0.116431 0.103544 0.0936462 0.0864946 0.0816107 0.0784818 0.0768483 0.0767402 0.0782054 0.0810411 0.0848575 0.0894087 0.0947815 0.101181 0.108553 0.116515 0.124692 0.133046 0.141747 0.150748 0.15961 0.167723 0.174206 0.176586 0.168511 0.13819 0.069505 -0.0538465 -0.242947 -0.5 0.5 0.454805 0.413866 0.37577 0.339716 0.305636 0.27404 0.245594 0.220674 0.19917 0.180669 0.164821 0.151556 0.140946 0.132881 0.126934 0.1226 0.119645 0.118159 0.118236 0.119659 0.121967 0.124857 0.128418 0.132893 0.138236 0.144018 0.149825 0.155642 0.161736 0.168152 0.174497 0.180198 0.184487 0.185108 0.175916 0.145108 0.0761662 -0.0479693 -0.239252 -0.5 0.5 
0.462415 
0.429225 
0.398547 
0.369221 
0.340947 
0.314166 
0.289607 
0.267735 
0.248489 
0.23146 
0.21634 
0.203182 
0.192226 
0.183483 
0.17656 
0.170939 
0.166419 
0.16319 
0.16144 
0.160952 
0.161191 
0.161809 
0.162949 
0.164952 
0.167808 
0.171027 
0.174136 
0.177171 
0.18054 
0.184396 
0.188337 
0.191753 
0.193971 
0.193022 
0.183041 
0.152175 
0.0833464 
-0.041459 
-0.235137 
-0.5 
0.5 0.469258 0.442996 0.419048 0.39592 0.37309 0.350938 0.330252 0.311569 0.29483 0.279575 0.265483 0.252705 0.241643 0.232423 0.224651 0.217768 0.211609 0.206503 0.202773 0.200207 0.198178 0.196297 0.194813 0.194229 0.194579 0.195274 0.195744 0.196107 0.196978 0.198627 0.20055 0.201991 0.2024 0.200256 0.190113 0.160007 0.0919974 -0.0332094 -0.229561 -0.5 0.5 0.474859 0.454053 0.435422 0.417225 0.398766 0.380386 0.36293 0.346994 0.332491 0.318877 0.305787 0.293444 0.282402 0.272881 0.264463 0.256521 0.248922 0.242153 0.23668 0.232296 0.228265 0.224159 0.220361 0.217565 0.215852 0.214486 0.212777 0.210949 0.209875 0.209929 0.21042 0.210367 0.209378 0.206536 0.196942 0.168435 0.101941 -0.0233808 -0.22256 -0.5 0.5 0.478586 0.461252 0.445954 0.430836 0.415118 0.399127 0.383753 0.369628 0.356638 0.344155 0.331768 0.319749 0.308764 0.299097 0.290295 0.281667 0.273102 0.265212 0.258587 0.253008 0.247644 0.242034 0.236683 0.232456 0.229451 0.226791 0.223673 0.220432 0.21818 0.217365 0.217083 0.216123 0.214267 0.211209 0.202564 0.17592 0.111043 -0.0143785 -0.21627 -0.5 0.5 0.479754 0.463726 0.449564 0.435453 0.420625 0.405418 0.39074 0.377232 0.364765 0.352679 0.340539 0.328637 0.317683 0.307983 0.299065 0.290206 0.281305 0.273034 0.266027 0.260055 0.254234 0.248095 0.242209 0.237517 0.234113 0.23103 0.227414 0.223679 0.221072 0.220059 0.219582 0.218289 0.216087 0.213052 0.205073 0.179498 0.115304 -0.0107103 -0.214873 -0.5 