# vtk DataFile Version 2.0 
Lid_driven streamfuntion-vorticity 
ASCII 
DATASET RECTILINEAR_GRID 
DIMENSIONS 41 41 1
X_COORDINATES 41 float 
0 
0.025 0.05 0.075 0.1 0.125 0.15 
0.175 0.2 0.225 0.25 0.275 0.3 
0.325 0.35 0.375 0.4 0.425 0.45 
0.475 0.5 0.525 0.55 0.575 0.6 
0.625 0.65 0.675 0.7 0.725 0.75 
0.775 0.8 0.825 0.85 0.875 0.9 
0.925 0.95 0.975 1 
Y_COORDINATES 41 float 
0 
0.025 0.05 0.075 0.1 0.125 0.15 
0.175 0.2 0.225 0.25 0.275 0.3 
0.325 0.35 0.375 0.4 0.425 0.45 
0.475 0.5 0.525 0.55 0.575 0.6 
0.625 0.65 0.675 0.7 0.725 0.75 
0.775 0.8 0.825 0.85 0.875 0.9 
0.925 0.95 0.975 1 
Z_COORDINATES 1 float 
0 

POINT_DATA 1681
SCALARS asfsafa float
LOOKUP_TABLE default 
0.5 
0.0967153 
-0.260037 
-0.400402 
-0.305636 
-0.150515 
-0.112921 
-0.195524 
-0.266309 
-0.236334 
-0.153261 
-0.121221 
-0.171268 
-0.235228 
-0.238704 
-0.18798 
-0.151908 
-0.174411 
-0.226533 
-0.250041 
-0.22795 
-0.198636 
-0.204182 
-0.241669 
-0.273417 
-0.274996 
-0.260709 
-0.261044 
-0.285895 
-0.317138 
-0.334403 
-0.337596 
-0.342596 
-0.360547 
-0.386625 
-0.409286 
-0.423942 
-0.435588 
-0.451174 
-0.473101 
-0.5 
0.5 0.122008 -0.213119 -0.354557 -0.287471 -0.160057 -0.125523 -0.191441 -0.250209 -0.226836 -0.158683 -0.131583 -0.172277 -0.22545 -0.229425 -0.188469 -0.158982 -0.177588 -0.221232 -0.241895 -0.225044 -0.201897 -0.207234 -0.239287 -0.267242 -0.270562 -0.260674 -0.262653 -0.285003 -0.313245 -0.330329 -0.335815 -0.342667 -0.360139 -0.384716 -0.406952 -0.422688 -0.435687 -0.451607 -0.473018 -0.5 0.5 0.168551 -0.117632 -0.258238 -0.244444 -0.172944 -0.147937 -0.183899 -0.219303 -0.207095 -0.166753 -0.149382 -0.172719 -0.205086 -0.209134 -0.186032 -0.168852 -0.180136 -0.207389 -0.221963 -0.214331 -0.20253 -0.207428 -0.228997 -0.249287 -0.255365 -0.253576 -0.258751 -0.276519 -0.299038 -0.315682 -0.325657 -0.336505 -0.353786 -0.376157 -0.398094 -0.416499 -0.4331 -0.451089 -0.472892 -0.5 0.5 0.213671 -0.031981 -0.172507 -0.20107 -0.175269 -0.161326 -0.176782 -0.194136 -0.188711 -0.168361 -0.158319 -0.168604 -0.184444 -0.187031 -0.176049 -0.167421 -0.172743 -0.186717 -0.195283 -0.193202 -0.189011 -0.193066 -0.206067 -0.219541 -0.226703 -0.230426 -0.237934 -0.252397 -0.270553 -0.286917 -0.300767 -0.315669 -0.33435 -0.35668 -0.380027 -0.402358 -0.423996 -0.446228 -0.470943 -0.5 0.5 0.2443 0.0214284 -0.1197 -0.171053 -0.170522 -0.164423 -0.170387 -0.177777 -0.174228 -0.162841 -0.155867 -0.158728 -0.164723 -0.164694 -0.158121 -0.152491 -0.153591 -0.159251 -0.162907 -0.161896 -0.16011 -0.162635 -0.170084 -0.178659 -0.185182 -0.19084 -0.199151 -0.211906 -0.227754 -0.244246 -0.260912 -0.279317 -0.300898 -0.325692 -0.352438 -0.379893 -0.407695 -0.43621 -0.466581 -0.5 0.5 0.261547 0.0491919 -0.0925247 -0.153435 -0.163765 -0.161654 -0.163839 -0.166155 -0.161806 -0.152637 -0.145698 -0.144177 -0.144428 -0.141394 -0.134789 -0.128791 -0.126658 -0.127241 -0.12711 -0.124867 -0.122598 -0.123232 -0.127111 -0.132311 -0.1374 -0.142936 -0.151007 -0.162785 -0.177539 -0.194336 -0.212984 -0.234285 -0.259239 -0.287731 -0.319011 -0.3523 -0.386972 -0.422919 -0.460474 -0.5 0.5 
0.271999 
0.0662867 
-0.0753087 
-0.141182 
-0.15705 
-0.156775 
-0.15662 
-0.155531 
-0.149481 
-0.139935 
-0.13165 
-0.126762 
-0.122982 
-0.117168 
-0.109224 
-0.101869 
-0.0971842 
-0.0944428 
-0.0916061 
-0.0878817 
-0.0845719 
-0.0835564 
-0.0850407 
-0.0879388 
-0.0915875 
-0.0963855 
-0.103758 
-0.114585 
-0.128542 
-0.145394 
-0.165231 
-0.188656 
-0.216448 
-0.248518 
-0.284373 
-0.323448 
-0.365048 
-0.408646 
-0.453773 
-0.5 
0.5 0.280272 0.0799984 -0.060993 -0.130283 -0.149983 -0.150728 -0.148548 -0.144585 -0.136658 -0.125994 -0.115974 -0.108178 -0.101225 -0.093174 -0.0840025 -0.075492 -0.0690246 -0.0641575 -0.0596605 -0.0550629 -0.0511319 -0.0490406 -0.0489569 -0.0502912 -0.0527605 -0.0567153 -0.0631331 -0.072745 -0.0856376 -0.101967 -0.122097 -0.146645 -0.176272 -0.211111 -0.250918 -0.295255 -0.343415 -0.394453 -0.447113 -0.5 0.5 0.287649 0.0918051 -0.0483543 -0.119759 -0.142099 -0.143595 -0.139871 -0.133504 -0.12369 -0.111646 -0.0999462 -0.089861 -0.0806014 -0.0709877 -0.0610308 -0.051904 -0.0445373 -0.0386278 -0.0334077 -0.0285618 -0.0244747 -0.0218564 -0.0208218 -0.0210537 -0.0224847 -0.0254144 -0.0305594 -0.0385955 -0.0499031 -0.0649567 -0.084377 -0.108909 -0.139293 -0.175928 -0.218856 -0.2678 -0.322043 -0.38026 -0.440406 -0.5 0.5 0.294114 0.103063 -0.0358211 -0.109161 -0.134025 -0.136222 -0.131098 -0.122581 -0.111019 -0.0976854 -0.0846238 -0.0729111 -0.062169 -0.0517092 -0.0415546 -0.0324518 -0.0249893 -0.0189322 -0.0137363 -0.00913125 -0.00526276 -0.00250282 -0.000906199 -0.000299714 -0.000696205 -0.00237046 -0.00590858 -0.0119628 -0.021122 -0.0341255 -0.051837 -0.0752378 -0.105312 -0.142747 -0.187914 -0.240766 -0.300596 -0.365779 -0.433453 -0.5 0.5 0.299985 0.113198 -0.0243097 -0.0989071 -0.12575 -0.128618 -0.12243 -0.112132 -0.0990788 -0.084687 -0.070669 -0.0579761 -0.0464858 -0.035826 -0.026009 -0.0174677 -0.0105336 -0.00496981 -0.00031769 0.00369826 0.00709176 0.00972938 0.0116198 0.0128766 0.0134773 0.013168 0.0114287 0.00762392 0.00102762 -0.00932028 -0.0245093 -0.0458205 -0.0745945 -0.111845 -0.158339 -0.21434 -0.279209 -0.351107 -0.426339 -0.5 0.5 0.305541 0.122866 -0.0131439 -0.0886886 -0.117301 -0.120967 -0.114121 -0.102477 -0.0882549 -0.0730956 -0.0585299 -0.0454166 -0.0337772 -0.0234211 -0.0143319 -0.00671294 -0.000694005 0.00400415 0.00781766 0.0110461 0.0138157 0.0161476 0.0181129 0.0198194 0.0212607 0.022219 0.0222368 0.0207013 0.0168082 0.00944815 -0.00268519 -0.0211867 -0.04778 -0.0839024 -0.130796 -0.189115 -0.258395 -0.336602 -0.419186 -0.5 0.5 
0.311001 
0.132856 
-0.00145844 
-0.0781698 
-0.108853 
-0.113574 
-0.106371 
-0.0937539 
-0.0787295 
-0.0631535 
-0.0484206 
-0.0353138 
-0.0239522 
-0.0142467 
-0.00613939 
0.000355771 
0.00528645 
0.00896626 
0.0118256 
0.0141919 
0.0162639 
0.0181731 
0.0200392 
0.0219825 
0.0240329 
0.026019 
0.0275752 
0.0281371 
0.0268615 
0.0225832 
0.0137999 
-0.00138737 
-0.0250619 
-0.0591867 
-0.105573 
-0.165351 
-0.238358 
-0.322414 
-0.412105 
-0.5 
0.5 0.31658 0.142498 0.00982072 -0.0676697 -0.100219 -0.106228 -0.099143 -0.0860218 -0.0705752 -0.0548873 -0.0402837 -0.0274969 -0.0166875 -0.0078212 -0.000790643 0.00454355 0.00836319 0.011015 0.0129308 0.0144548 0.0158291 0.0172604 0.0189039 0.0209015 0.0233335 0.026085 0.0288986 0.0312892 0.0324261 0.0311467 0.0258116 0.0142534 -0.00597421 -0.0373867 -0.082458 -0.142905 -0.218971 -0.308477 -0.40515 -0.5 0.5 0.322155 0.152557 0.0217125 -0.0567145 -0.0914142 -0.0990774 -0.0925754 -0.0794074 -0.0638729 -0.0483097 -0.0340366 -0.0217507 -0.0116279 -0.00364335 0.00235893 0.00662578 0.0094365 0.0111662 0.0122429 0.0130182 0.0137602 0.014715 0.0160694 0.0179934 0.0206129 0.0238896 0.0276695 0.0315641 0.0348186 0.0363083 0.0343203 0.0264902 0.0100239 -0.0181663 -0.0612676 -0.121698 -0.200246 -0.294778 -0.398169 -0.5 0.5 0.32781 0.162912 0.0340258 -0.0454037 -0.0824836 -0.0921455 -0.0866401 -0.0738344 -0.0585317 -0.043301 -0.0294897 -0.0177868 -0.0083732 -0.00121366 0.00388837 0.00725341 0.00922798 0.0102014 0.0105914 0.0107487 0.0109525 0.0114671 0.0125046 0.0142631 0.0169111 0.0204909 0.0249502 0.0300081 0.0350249 0.0389616 0.0400933 0.0359294 0.0233813 -0.00120533 -0.0417803 -0.101552 -0.182001 -0.281212 -0.391219 -0.5 0.5 0.333617 0.173194 0.0462784 -0.0339028 -0.0733069 -0.0852582 -0.081223 -0.0692186 -0.0544553 -0.0397188 -0.0264334 -0.0153187 -0.00655466 -9.63776e-05 0.00428222 0.00694895 0.00828616 0.00868599 0.00855343 0.00823068 0.00799524 0.0081207 0.00883555 0.010363 0.0129165 0.0166085 0.021487 0.0273867 0.0337967 0.0398049 0.0437344 0.0430382 0.0343953 0.0136261 -0.0240023 -0.0825693 -0.164376 -0.267902 -0.384376 -0.5 0.5 0.339467 0.18407 0.0593708 -0.0217546 -0.0637978 -0.078415 -0.0763113 -0.0655422 -0.0515812 -0.0374515 -0.0247089 -0.0141264 -0.00590268 1.92813e-05 0.00388226 0.00606942 0.00697603 0.00699067 0.00649895 0.00582972 0.00525762 0.00505304 0.00545952 0.00672524 0.00909793 0.0127606 0.0178479 0.0243023 0.0317564 0.039433 0.0457521 0.0482003 0.0432962 0.0263731 -0.00803403 -0.0649438 -0.147656 -0.255044 -0.37758 -0.5 0.5 
0.345515 
0.195095 
0.0726969 
-0.00919898 
-0.0538944 
-0.071427 
-0.0716376 
-0.0624908 
-0.0496238 
-0.0362459 
-0.0240723 
-0.0139718 
-0.00617325 
-0.000626189 
0.00291033 
0.00481602 
0.00547944 
0.00527676 
0.00457181 
0.00367794 
0.00286381 
0.00239435 
0.00252553 
0.00352891 
0.00568285 
0.00922986 
0.0143826 
0.0211786 
0.0293822 
0.038371 
0.046691 
0.0519284 
0.0505429 
0.0374484 
0.00647924 
-0.0483369 
-0.131442 
-0.242399 
-0.37096 
-0.5 
0.5 0.351706 0.206369 0.0864479 0.00397939 -0.0433257 -0.064 -0.0669396 -0.0598384 -0.0483787 -0.0359229 -0.0243655 -0.0147025 -0.00722181 -0.00190368 0.00147213 0.00326612 0.00384618 0.00356882 0.00277556 0.00176374 0.000795552 0.00013341 4.48298e-05 0.000823627 0.00277826 0.00620042 0.0113676 0.0183985 0.0271689 0.0371976 0.0471832 0.0548545 0.0566697 0.0472338 0.0197517 -0.0327397 -0.115922 -0.230123 -0.364444 -0.5 0.5 0.357978 0.218198 0.101063 0.0180574 -0.0319405 -0.0559854 -0.0620421 -0.057406 -0.0476662 -0.0363196 -0.0254561 -0.0162139 -0.00897172 -0.0037647 -0.000411969 0.00141075 0.00203951 0.00180836 0.00103458 7.62059e-09 -0.00103456 -0.00180835 -0.00203949 -0.00141073 0.000411983 0.00376471 0.00897174 0.0162139 0.0254561 0.0363196 0.0476662 0.057406 0.0620421 0.0559854 0.0319405 -0.0180574 -0.101063 -0.218198 -0.357978 -0.5 0.5 0.364444 0.230123 0.115922 0.0327397 -0.0197517 -0.0472337 -0.0566697 -0.0548545 -0.0471832 -0.0371976 -0.0271688 -0.0183985 -0.0113676 -0.00620041 -0.00277825 -0.000823613 -4.48149e-05 -0.000133395 -0.000795537 -0.00176372 -0.00277554 -0.0035688 -0.00384616 -0.0032661 -0.00147211 0.0019037 0.00722183 0.0147025 0.0243655 0.0359229 0.0483787 0.0598385 0.0669396 0.064 0.0433257 -0.00397938 -0.0864479 -0.206369 -0.351706 -0.5 0.5 0.37096 0.242399 0.131442 0.0483369 -0.00647924 -0.0374484 -0.0505429 -0.0519284 -0.046691 -0.038371 -0.0293822 -0.0211786 -0.0143826 -0.00922985 -0.00568283 -0.00352889 -0.00252552 -0.00239434 -0.00286379 -0.00367792 -0.0045718 -0.00527674 -0.00547942 -0.004816 -0.00291031 0.000626203 0.00617326 0.0139718 0.0240724 0.0362459 0.0496238 0.0624908 0.0716376 0.071427 0.0538944 0.00919899 -0.0726969 -0.195095 -0.345515 -0.5 0.5 0.37758 0.255044 0.147656 0.0649438 0.00803404 -0.026373 -0.0432962 -0.0482003 -0.0457521 -0.0394329 -0.0317564 -0.0243023 -0.0178479 -0.0127606 -0.00909792 -0.00672523 -0.00545951 -0.00505302 -0.00525761 -0.00582971 -0.00649893 -0.00699066 -0.00697601 -0.00606941 -0.00388224 -1.92677e-05 0.0059027 0.0141264 0.0247089 0.0374515 0.0515812 0.0655422 0.0763113 0.078415 0.0637979 0.0217546 -0.0593708 -0.18407 -0.339467 -0.5 0.5 
0.384376 
0.267902 
0.164376 
0.0825693 
0.0240023 
-0.0136261 
-0.0343953 
-0.0430382 
-0.0437344 
-0.0398049 
-0.0337967 
-0.0273867 
-0.021487 
-0.0166085 
-0.0129165 
-0.010363 
-0.00883554 
-0.00812068 
-0.00799523 
-0.00823067 
-0.00855341 
-0.00868598 
-0.00828615 
-0.00694894 
-0.00428221 
9.63911e-05 
0.00655467 
0.0153187 
0.0264334 
0.0397189 
0.0544553 
0.0692186 
0.081223 
0.0852582 
0.0733069 
0.0339028 
-0.0462784 
-0.173194 
-0.333617 
-0.5 
0.5 0.391219 0.281212 0.182001 0.101552 0.0417803 0.00120534 -0.0233812 -0.0359294 -0.0400933 -0.0389616 -0.0350249 -0.0300081 -0.0249502 -0.0204909 -0.0169111 -0.014263 -0.0125046 -0.011467 -0.0109525 -0.0107486 -0.0105914 -0.0102014 -0.00922797 -0.0072534 -0.00388836 0.00121367 0.00837321 0.0177868 0.0294897 0.043301 0.0585317 0.0738344 0.0866401 0.0921455 0.0824836 0.0454037 -0.0340258 -0.162912 -0.32781 -0.5 0.5 0.398169 0.294778 0.200246 0.121698 0.0612676 0.0181663 -0.0100239 -0.0264902 -0.0343203 -0.0363083 -0.0348186 -0.0315641 -0.0276695 -0.0238895 -0.0206129 -0.0179934 -0.0160694 -0.014715 -0.0137602 -0.0130182 -0.0122429 -0.0111662 -0.00943648 -0.00662577 -0.00235892 0.00364336 0.0116279 0.0217507 0.0340366 0.0483098 0.0638729 0.0794074 0.0925754 0.0990774 0.0914142 0.0567145 -0.0217125 -0.152557 -0.322155 -0.5 0.5 0.40515 0.308477 0.218971 0.142905 0.082458 0.0373867 0.00597422 -0.0142534 -0.0258116 -0.0311467 -0.0324261 -0.0312892 -0.0288986 -0.026085 -0.0233335 -0.0209015 -0.0189039 -0.0172604 -0.0158291 -0.0144548 -0.0129308 -0.011015 -0.00836317 -0.00454354 0.000790656 0.00782121 0.0166876 0.0274969 0.0402837 0.0548873 0.0705752 0.0860218 0.099143 0.106228 0.100219 0.0676698 -0.00982071 -0.142498 -0.31658 -0.5 0.5 0.412105 0.322414 0.238358 0.165351 0.105573 0.0591867 0.0250619 0.00138738 -0.0137999 -0.0225832 -0.0268615 -0.0281371 -0.0275751 -0.0260189 -0.0240329 -0.0219825 -0.0200392 -0.018173 -0.0162639 -0.0141918 -0.0118256 -0.00896625 -0.00528644 -0.000355758 0.00613941 0.0142468 0.0239522 0.0353138 0.0484206 0.0631535 0.0787295 0.093754 0.106371 0.113574 0.108853 0.0781699 0.00145845 -0.132856 -0.311001 -0.5 0.5 0.419186 0.336602 0.258395 0.189115 0.130796 0.0839024 0.04778 0.0211867 0.00268519 -0.00944814 -0.0168081 -0.0207013 -0.0222368 -0.022219 -0.0212607 -0.0198194 -0.0181129 -0.0161476 -0.0138157 -0.0110461 -0.00781765 -0.00400414 0.000694017 0.00671295 0.0143319 0.0234211 0.0337772 0.0454166 0.0585299 0.0730956 0.0882549 0.102477 0.114121 0.120967 0.117301 0.0886886 0.0131439 -0.122866 -0.305541 -0.5 0.5 
0.426339 
0.351107 
0.279209 
0.21434 
0.158339 
0.111845 
0.0745946 
0.0458206 
0.0245093 
0.00932029 
-0.00102761 
-0.00762391 
-0.0114287 
-0.013168 
-0.0134773 
-0.0128766 
-0.0116197 
-0.00972937 
-0.00709175 
-0.00369825 
0.000317702 
0.00496982 
0.0105336 
0.0174677 
0.026009 
0.035826 
0.0464858 
0.0579761 
0.070669 
0.084687 
0.0990789 
0.112132 
0.12243 
0.128618 
0.12575 
0.0989071 
0.0243097 
-0.113198 
-0.299985 
-0.5 
0.5 0.433453 0.365779 0.300596 0.240766 0.187914 0.142747 0.105312 0.0752378 0.051837 0.0341255 0.021122 0.0119629 0.00590859 0.00237047 0.000696215 0.000299724 0.00090621 0.00250283 0.00526277 0.00913127 0.0137363 0.0189322 0.0249893 0.0324518 0.0415546 0.0517093 0.062169 0.0729111 0.0846238 0.0976854 0.111019 0.122581 0.131098 0.136222 0.134025 0.109161 0.0358211 -0.103063 -0.294114 -0.5 0.5 0.440406 0.38026 0.322043 0.2678 0.218856 0.175928 0.139293 0.108909 0.084377 0.0649567 0.0499031 0.0385955 0.0305594 0.0254144 0.0224847 0.0210537 0.0208218 0.0218564 0.0244748 0.0285618 0.0334078 0.0386278 0.0445373 0.051904 0.0610308 0.0709877 0.0806014 0.089861 0.0999462 0.111646 0.12369 0.133504 0.139871 0.143595 0.142099 0.119759 0.0483543 -0.0918051 -0.287649 -0.5 0.5 0.447113 0.394453 0.343415 0.295255 0.250918 0.211111 0.176272 0.146645 0.122097 0.101967 0.0856376 0.072745 0.0631332 0.0567153 0.0527605 0.0502912 0.0489569 0.0490406 0.0511319 0.0550629 0.0596605 0.0641575 0.0690246 0.075492 0.0840025 0.093174 0.101225 0.108178 0.115974 0.125994 0.136658 0.144585 0.148548 0.150728 0.149983 0.130283 0.060993 -0.0799984 -0.280272 -0.5 0.5 0.453773 0.408646 0.365048 0.323448 0.284373 0.248518 0.216448 0.188656 0.165231 0.145394 0.128542 0.114585 0.103758 0.0963855 0.0915875 0.0879388 0.0850408 0.0835564 0.0845719 0.0878817 0.0916061 0.0944428 0.0971842 0.101869 0.109224 0.117168 0.122982 0.126762 0.13165 0.139935 0.149481 0.155531 0.15662 0.156775 0.15705 0.141182 0.0753087 -0.0662867 -0.271999 -0.5 0.5 0.460474 0.422919 0.386972 0.3523 0.319011 0.287731 0.259239 0.234285 0.212984 0.194336 0.177539 0.162785 0.151007 0.142936 0.1374 0.132311 0.127111 0.123232 0.122598 0.124867 0.12711 0.127241 0.126658 0.128791 0.134789 0.141394 0.144428 0.144177 0.145698 0.152637 0.161806 0.166155 0.163839 0.161654 0.163765 0.153435 0.0925247 -0.0491919 -0.261547 -0.5 0.5 
0.466581 
0.43621 
0.407695 
0.379893 
0.352438 
0.325692 
0.300898 
0.279317 
0.260912 
0.244246 
0.227754 
0.211906 
0.199151 
0.19084 
0.185182 
0.178659 
0.170084 
0.162635 
0.16011 
0.161896 
0.162907 
0.159251 
0.153591 
0.152491 
0.158121 
0.164694 
0.164723 
0.158728 
0.155867 
0.162841 
0.174228 
0.177777 
0.170387 
0.164423 
0.170522 
0.171053 
0.1197 
-0.0214284 
-0.2443 
-0.5 
0.5 0.470943 0.446228 0.423996 0.402358 0.380027 0.35668 0.33435 0.315669 0.300767 0.286917 0.270554 0.252397 0.237934 0.230426 0.226703 0.219541 0.206067 0.193066 0.189011 0.193202 0.195283 0.186717 0.172743 0.167421 0.176049 0.187031 0.184444 0.168604 0.158319 0.168361 0.188711 0.194136 0.176782 0.161326 0.175269 0.20107 0.172507 0.031981 -0.213671 -0.5 0.5 0.472892 0.451089 0.4331 0.416499 0.398094 0.376157 0.353786 0.336505 0.325657 0.315682 0.299038 0.276519 0.258751 0.253576 0.255365 0.249287 0.228997 0.207428 0.20253 0.214331 0.221963 0.207389 0.180136 0.168852 0.186032 0.209134 0.205086 0.172719 0.149382 0.166753 0.207095 0.219303 0.183899 0.147937 0.172944 0.244444 0.258238 0.117632 -0.168551 -0.5 0.5 0.473018 0.451607 0.435687 0.422688 0.406953 0.384716 0.360139 0.342667 0.335815 0.330329 0.313245 0.285003 0.262653 0.260674 0.270562 0.267242 0.239287 0.207234 0.201897 0.225044 0.241895 0.221232 0.177588 0.158982 0.188469 0.229425 0.22545 0.172277 0.131583 0.158683 0.226836 0.250209 0.191441 0.125523 0.160057 0.287471 0.354557 0.213119 -0.122008 -0.5 0.5 0.473101 0.451174 0.435588 0.423942 0.409286 0.386625 0.360547 0.342596 0.337596 0.334403 0.317138 0.285895 0.261044 0.260709 0.274996 0.273417 0.241669 0.204182 0.198636 0.22795 0.250041 0.226533 0.174411 0.151908 0.18798 0.238704 0.235228 0.171268 0.121221 0.153261 0.236334 0.266309 0.195524 0.112921 0.150515 0.305636 0.400402 0.260037 -0.0967153 -0.5 