# vtk DataFile Version 2.0 
Velocity in internal nodes
ASCII 
DATASET RECTILINEAR_GRID 
DIMENSIONS 18 18 18
X_COORDINATES 18 float 
0.0526316 0.105263 0.157895 0.210526 0.263158 0.315789 
0.368421 0.421053 0.473684 0.526316 0.578947 0.631579 
0.684211 0.736842 0.789474 0.842105 0.894737 0.947368 
Y_COORDINATES 18 float 
0.0526316 0.105263 0.157895 0.210526 0.263158 0.315789 
0.368421 0.421053 0.473684 0.526316 0.578947 0.631579 
0.684211 0.736842 0.789474 0.842105 0.894737 0.947368 
Z_COORDINATES 18 float 
0.0526316 0.105263 0.157895 0.210526 0.263158 0.315789 
0.368421 0.421053 0.473684 0.526316 0.578947 0.631579 
0.684211 0.736842 0.789474 0.842105 0.894737 0.947368 
POINT_DATA 5832
VECTORS velocity float 
-16.235 16.235 0
-32.0271 15.5676 0
-46.9456 14.4757 0
-60.5836 12.9888 0
-72.569 11.1477 0
-82.5749 9.00247 0
-90.3283 6.61169 0
-95.6179 4.04056 0
-98.2992 1.35921 0
-98.2992 -1.35921 0
-95.6179 -4.04056 0
-90.3283 -6.61169 0
-82.5749 -9.00247 0
-72.569 -11.1477 0
-60.5836 -12.9888 0
-46.9456 -14.4757 0
-32.0271 -15.5676 0
-16.235 -16.235 0
-15.5676 32.0271 0
-30.7106 30.7106 0
-45.0159 28.5565 0
-58.0933 25.6234 0
-69.586 21.9913 0
-79.1806 17.7594 0
-86.6154 13.043 0
-91.6875 7.9709 0
-94.2587 2.68135 0
-94.2587 -2.68135 0
-91.6875 -7.9709 0
-86.6154 -13.043 0
-79.1806 -17.7594 0
-69.586 -21.9913 0
-58.0933 -25.6234 0
-45.0159 -28.5565 0
-30.7106 -30.7106 0
-15.5676 -32.0271 0
-14.4757 46.9456 0
-28.5565 45.0159 0
-41.8583 41.8583 0
-54.0184 37.5589 0
-64.705 32.235 0
-73.6266 26.0319 0
-80.5399 19.1186 0
-85.2562 11.6838 0
-87.647 3.93034 0
-87.647 -3.93034 0
-85.2562 -11.6838 0
-80.5399 -19.1186 0
-73.6266 -26.0319 0
-64.705 -32.235 0
-54.0184 -37.5589 0
-41.8583 -41.8583 0
-28.5565 -45.0159 0
-14.4757 -46.9456 0
-12.9888 60.5836 0
-25.6234 58.0933 0
-37.5589 54.0184 0
-48.47 48.47 0
-58.059 41.5995 0
-66.0642 33.5943 0
-72.2674 24.6726 0
-76.4993 15.078 0
-78.6445 5.07213 0
-78.6445 -5.07213 0
-76.4993 -15.078 0
-72.2674 -24.6726 0
-66.0642 -33.5943 0
-58.059 -41.5995 0
-48.47 -48.47 0
-37.5589 -54.0184 0
-25.6234 -58.0933 0
-12.9888 -60.5836 0
-11.1477 72.569 0
-21.9913 69.586 0
-32.235 64.705 0
-41.5995 58.059 0
-49.8292 49.8292 0
-56.6997 40.2403 0
-62.0236 29.5537 0
-65.6557 18.061 0
-67.4968 6.07556 0
-67.4968 -6.07556 0
-65.6557 -18.061 0
-62.0236 -29.5537 0
-56.6997 -40.2403 0
-49.8292 -49.8292 0
-41.5995 -58.059 0
-32.235 -64.705 0
-21.9913 -69.586 0
-11.1477 -72.569 0
-9.00247 82.5749 0
-17.7594 79.1806 0
-26.0319 73.6266 0
-33.5943 66.0642 0
-40.2403 56.6997 0
-45.7887 45.7887 0
-50.0881 33.6286 0
-53.0212 20.5512 0
-54.508 6.91327 0
-54.508 -6.91327 0
-53.0212 -20.5512 0
-50.0881 -33.6286 0
-45.7887 -45.7887 0
-40.2403 -56.6997 0
-33.5943 -66.0642 0
-26.0319 -73.6266 0
-17.7594 -79.1806 0
-9.00247 -82.5749 0
-6.61169 90.3283 0
-13.043 86.6154 0
-19.1186 80.5399 0
-24.6726 72.2674 0
-29.5537 62.0236 0
-33.6286 50.0881 0
-36.7862 36.7862 0
-38.9404 22.4809 0
-40.0323 7.5624 0
-40.0323 -7.5624 0
-38.9404 -22.4809 0
-36.7862 -36.7862 0
-33.6286 -50.0881 0
-29.5537 -62.0236 0
-24.6726 -72.2674 0
-19.1186 -80.5399 0
-13.043 -86.6154 0
-6.61169 -90.3283 0
-4.04056 95.6179 0
-7.9709 91.6875 0
-11.6838 85.2562 0
-15.078 76.4993 0
-18.061 65.6557 0
-20.5512 53.0212 0
-22.4809 38.9404 0
-23.7974 23.7974 0
-24.4647 8.00524 0
-24.4647 -8.00524 0
-23.7974 -23.7974 0
-22.4809 -38.9404 0
-20.5512 -53.0212 0
-18.061 -65.6557 0
-15.078 -76.4993 0
-11.6838 -85.2562 0
-7.9709 -91.6875 0
-4.04056 -95.6179 0
-1.35921 98.2992 0
-2.68135 94.2587 0
-3.93034 87.647 0
-5.07213 78.6445 0
-6.07556 67.4968 0
-6.91327 54.508 0
-7.5624 40.0323 0
-8.00524 24.4647 0
-8.22973 8.22973 0
-8.22973 -8.22973 0
-8.00524 -24.4647 0
-7.5624 -40.0323 0
-6.91327 -54.508 0
-6.07556 -67.4968 0
-5.07213 -78.6445 0
-3.93034 -87.647 0
-2.68135 -94.2587 0
-1.35921 -98.2992 0
1.35921 98.2992 0
2.68135 94.2587 0
3.93034 87.647 0
5.07213 78.6445 0
6.07556 67.4968 0
6.91327 54.508 0
7.5624 40.0323 0
8.00524 24.4647 0
8.22973 8.22973 0
8.22973 -8.22973 0
8.00524 -24.4647 0
7.5624 -40.0323 0
6.91327 -54.508 0
6.07556 -67.4968 0
5.07213 -78.6445 0
3.93034 -87.647 0
2.68135 -94.2587 0
1.35921 -98.2992 0
4.04056 95.6179 0
7.9709 91.6875 0
11.6838 85.2562 0
15.078 76.4993 0
18.061 65.6557 0
20.5512 53.0212 0
22.4809 38.9404 0
23.7974 23.7974 0
24.4647 8.00524 0
24.4647 -8.00524 0
23.7974 -23.7974 0
22.4809 -38.9404 0
20.5512 -53.0212 0
18.061 -65.6557 0
15.078 -76.4993 0
11.6838 -85.2562 0
7.9709 -91.6875 0
4.04056 -95.6179 0
6.61169 90.3283 0
13.043 86.6154 0
19.1186 80.5399 0
24.6726 72.2674 0
29.5537 62.0236 0
33.6286 50.0881 0
36.7862 36.7862 0
38.9404 22.4809 0
40.0323 7.5624 0
40.0323 -7.5624 0
38.9404 -22.4809 0
36.7862 -36.7862 0
33.6286 -50.0881 0
29.5537 -62.0236 0
24.6726 -72.2674 0
19.1186 -80.5399 0
13.043 -86.6154 0
6.61169 -90.3283 0
9.00247 82.5749 0
17.7594 79.1806 0
26.0319 73.6266 0
33.5943 66.0642 0
40.2403 56.6997 0
45.7887 45.7887 0
50.0881 33.6286 0
53.0212 20.5512 0
54.508 6.91327 0
54.508 -6.91327 0
53.0212 -20.5512 0
50.0881 -33.6286 0
45.7887 -45.7887 0
40.2403 -56.6997 0
33.5943 -66.0642 0
26.0319 -73.6266 0
17.7594 -79.1806 0
9.00247 -82.5749 0
11.1477 72.569 0
21.9913 69.586 0
32.235 64.705 0
41.5995 58.059 0
49.8292 49.8292 0
56.6997 40.2403 0
62.0236 29.5537 0
65.6557 18.061 0
67.4968 6.07556 0
67.4968 -6.07556 0
65.6557 -18.061 0
62.0236 -29.5537 0
56.6997 -40.2403 0
49.8292 -49.8292 0
41.5995 -58.059 0
32.235 -64.705 0
21.9913 -69.586 0
11.1477 -72.569 0
12.9888 60.5836 0
25.6234 58.0933 0
37.5589 54.0184 0
48.47 48.47 0
58.059 41.5995 0
66.0642 33.5943 0
72.2674 24.6726 0
76.4993 15.078 0
78.6445 5.07213 0
78.6445 -5.07213 0
76.4993 -15.078 0
72.2674 -24.6726 0
66.0642 -33.5943 0
58.059 -41.5995 0
48.47 -48.47 0
37.5589 -54.0184 0
25.6234 -58.0933 0
12.9888 -60.5836 0
14.4757 46.9456 0
28.5565 45.0159 0
41.8583 41.8583 0
54.0184 37.5589 0
64.705 32.235 0
73.6266 26.0319 0
80.5399 19.1186 0
85.2562 11.6838 0
87.647 3.93034 0
87.647 -3.93034 0
85.2562 -11.6838 0
80.5399 -19.1186 0
73.6266 -26.0319 0
64.705 -32.235 0
54.0184 -37.5589 0
41.8583 -41.8583 0
28.5565 -45.0159 0
14.4757 -46.9456 0
15.5676 32.0271 0
30.7106 30.7106 0
45.0159 28.5565 0
58.0933 25.6234 0
69.586 21.9913 0
79.1806 17.7594 0
86.6154 13.043 0
91.6875 7.9709 0
94.2587 2.68135 0
94.2587 -2.68135 0
91.6875 -7.9709 0
86.6154 -13.043 0
79.1806 -17.7594 0
69.586 -21.9913 0
58.0933 -25.6234 0
45.0159 -28.5565 0
30.7106 -30.7106 0
15.5676 -32.0271 0
16.235 16.235 0
32.0271 15.5676 0
46.9456 14.4757 0
60.5836 12.9888 0
72.569 11.1477 0
82.5749 9.00247 0
90.3283 6.61169 0
95.6179 4.04056 0
98.2992 1.35921 0
98.2992 -1.35921 0
95.6179 -4.04056 0
90.3283 -6.61169 0
82.5749 -9.00247 0
72.569 -11.1477 0
60.5836 -12.9888 0
46.9456 -14.4757 0
32.0271 -15.5676 0
16.235 -16.235 0
-16.235 16.235 0
-32.0271 15.5676 0
-46.9456 14.4757 0
-60.5836 12.9888 0
-72.569 11.1477 0
-82.5749 9.00247 0
-90.3283 6.61169 0
-95.6179 4.04056 0
-98.2992 1.35921 0
-98.2992 -1.35921 0
-95.6179 -4.04056 0
-90.3283 -6.61169 0
-82.5749 -9.00247 0
-72.569 -11.1477 0
-60.5836 -12.9888 0
-46.9456 -14.4757 0
-32.0271 -15.5676 0
-16.235 -16.235 0
-15.5676 32.0271 0
-30.7106 30.7106 0
-45.0159 28.5565 0
-58.0933 25.6234 0
-69.586 21.9913 0
-79.1806 17.7594 0
-86.6154 13.043 0
-91.6875 7.9709 0
-94.2587 2.68135 0
-94.2587 -2.68135 0
-91.6875 -7.9709 0
-86.6154 -13.043 0
-79.1806 -17.7594 0
-69.586 -21.9913 0
-58.0933 -25.6234 0
-45.0159 -28.5565 0
-30.7106 -30.7106 0
-15.5676 -32.0271 0
-14.4757 46.9456 0
-28.5565 45.0159 0
-41.8583 41.8583 0
-54.0184 37.5589 0
-64.705 32.235 0
-73.6266 26.0319 0
-80.5399 19.1186 0
-85.2562 11.6838 0
-87.647 3.93034 0
-87.647 -3.93034 0
-85.2562 -11.6838 0
-80.5399 -19.1186 0
-73.6266 -26.0319 0
-64.705 -32.235 0
-54.0184 -37.5589 0
-41.8583 -41.8583 0
-28.5565 -45.0159 0
-14.4757 -46.9456 0
-12.9888 60.5836 0
-25.6234 58.0933 0
-37.5589 54.0184 0
-48.47 48.47 0
-58.059 41.5995 0
-66.0642 33.5943 0
-72.2674 24.6726 0
-76.4993 15.078 0
-78.6445 5.07213 0
-78.6445 -5.07213 0
-76.4993 -15.078 0
-72.2674 -24.6726 0
-66.0642 -33.5943 0
-58.059 -41.5995 0
-48.47 -48.47 0
-37.5589 -54.0184 0
-25.6234 -58.0933 0
-12.9888 -60.5836 0
-11.1477 72.569 0
-21.9913 69.586 0
-32.235 64.705 0
-41.5995 58.059 0
-49.8292 49.8292 0
-56.6997 40.2403 0
-62.0236 29.5537 0
-65.6557 18.061 0
-67.4968 6.07556 0
-67.4968 -6.07556 0
-65.6557 -18.061 0
-62.0236 -29.5537 0
-56.6997 -40.2403 0
-49.8292 -49.8292 0
-41.5995 -58.059 0
-32.235 -64.705 0
-21.9913 -69.586 0
-11.1477 -72.569 0
-9.00247 82.5749 0
-17.7594 79.1806 0
-26.0319 73.6266 0
-33.5943 66.0642 0
-40.2403 56.6997 0
-45.7887 45.7887 0
-50.0881 33.6286 0
-53.0212 20.5512 0
-54.508 6.91327 0
-54.508 -6.91327 0
-53.0212 -20.5512 0
-50.0881 -33.6286 0
-45.7887 -45.7887 0
-40.2403 -56.6997 0
-33.5943 -66.0642 0
-26.0319 -73.6266 0
-17.7594 -79.1806 0
-9.00247 -82.5749 0
-6.61169 90.3283 0
-13.043 86.6154 0
-19.1186 80.5399 0
-24.6726 72.2674 0
-29.5537 62.0236 0
-33.6286 50.0881 0
-36.7862 36.7862 0
-38.9404 22.4809 0
-40.0323 7.5624 0
-40.0323 -7.5624 0
-38.9404 -22.4809 0
-36.7862 -36.7862 0
-33.6286 -50.0881 0
-29.5537 -62.0236 0
-24.6726 -72.2674 0
-19.1186 -80.5399 0
-13.043 -86.6154 0
-6.61169 -90.3283 0
-4.04056 95.6179 0
-7.9709 91.6875 0
-11.6838 85.2562 0
-15.078 76.4993 0
-18.061 65.6557 0
-20.5512 53.0212 0
-22.4809 38.9404 0
-23.7974 23.7974 0
-24.4647 8.00524 0
-24.4647 -8.00524 0
-23.7974 -23.7974 0
-22.4809 -38.9404 0
-20.5512 -53.0212 0
-18.061 -65.6557 0
-15.078 -76.4993 0
-11.6838 -85.2562 0
-7.9709 -91.6875 0
-4.04056 -95.6179 0
-1.35921 98.2992 0
-2.68135 94.2587 0
-3.93034 87.647 0
-5.07213 78.6445 0
-6.07556 67.4968 0
-6.91327 54.508 0
-7.5624 40.0323 0
-8.00524 24.4647 0
-8.22973 8.22973 0
-8.22973 -8.22973 0
-8.00524 -24.4647 0
-7.5624 -40.0323 0
-6.91327 -54.508 0
-6.07556 -67.4968 0
-5.07213 -78.6445 0
-3.93034 -87.647 0
-2.68135 -94.2587 0
-1.35921 -98.2992 0
1.35921 98.2992 0
2.68135 94.2587 0
3.93034 87.647 0
5.07213 78.6445 0
6.07556 67.4968 0
6.91327 54.508 0
7.5624 40.0323 0
8.00524 24.4647 0
8.22973 8.22973 0
8.22973 -8.22973 0
8.00524 -24.4647 0
7.5624 -40.0323 0
6.91327 -54.508 0
6.07556 -67.4968 0
5.07213 -78.6445 0
3.93034 -87.647 0
2.68135 -94.2587 0
1.35921 -98.2992 0
4.04056 95.6179 0
7.9709 91.6875 0
11.6838 85.2562 0
15.078 76.4993 0
18.061 65.6557 0
20.5512 53.0212 0
22.4809 38.9404 0
23.7974 23.7974 0
24.4647 8.00524 0
24.4647 -8.00524 0
23.7974 -23.7974 0
22.4809 -38.9404 0
20.5512 -53.0212 0
18.061 -65.6557 0
15.078 -76.4993 0
11.6838 -85.2562 0
7.9709 -91.6875 0
4.04056 -95.6179 0
6.61169 90.3283 0
13.043 86.6154 0
19.1186 80.5399 0
24.6726 72.2674 0
29.5537 62.0236 0
33.6286 50.0881 0
36.7862 36.7862 0
38.9404 22.4809 0
40.0323 7.5624 0
40.0323 -7.5624 0
38.9404 -22.4809 0
36.7862 -36.7862 0
33.6286 -50.0881 0
29.5537 -62.0236 0
24.6726 -72.2674 0
19.1186 -80.5399 0
13.043 -86.6154 0
6.61169 -90.3283 0
9.00247 82.5749 0
17.7594 79.1806 0
26.0319 73.6266 0
33.5943 66.0642 0
40.2403 56.6997 0
45.7887 45.7887 0
50.0881 33.6286 0
53.0212 20.5512 0
54.508 6.91327 0
54.508 -6.91327 0
53.0212 -20.5512 0
50.0881 -33.6286 0
45.7887 -45.7887 0
40.2403 -56.6997 0
33.5943 -66.0642 0
26.0319 -73.6266 0
17.7594 -79.1806 0
9.00247 -82.5749 0
11.1477 72.569 0
21.9913 69.586 0
32.235 64.705 0
41.5995 58.059 0
49.8292 49.8292 0
56.6997 40.2403 0
62.0236 29.5537 0
65.6557 18.061 0
67.4968 6.07556 0
67.4968 -6.07556 0
65.6557 -18.061 0
62.0236 -29.5537 0
56.6997 -40.2403 0
49.8292 -49.8292 0
41.5995 -58.059 0
32.235 -64.705 0
21.9913 -69.586 0
11.1477 -72.569 0
12.9888 60.5836 0
25.6234 58.0933 0
37.5589 54.0184 0
48.47 48.47 0
58.059 41.5995 0
66.0642 33.5943 0
72.2674 24.6726 0
76.4993 15.078 0
78.6445 5.07213 0
78.6445 -5.07213 0
76.4993 -15.078 0
72.2674 -24.6726 0
66.0642 -33.5943 0
58.059 -41.5995 0
48.47 -48.47 0
37.5589 -54.0184 0
25.6234 -58.0933 0
12.9888 -60.5836 0
14.4757 46.9456 0
28.5565 45.0159 0
41.8583 41.8583 0
54.0184 37.5589 0
64.705 32.235 0
73.6266 26.0319 0
80.5399 19.1186 0
85.2562 11.6838 0
87.647 3.93034 0
87.647 -3.93034 0
85.2562 -11.6838 0
80.5399 -19.1186 0
73.6266 -26.0319 0
64.705 -32.235 0
54.0184 -37.5589 0
41.8583 -41.8583 0
28.5565 -45.0159 0
14.4757 -46.9456 0
15.5676 32.0271 0
30.7106 30.7106 0
45.0159 28.5565 0
58.0933 25.6234 0
69.586 21.9913 0
79.1806 17.7594 0
86.6154 13.043 0
91.6875 7.9709 0
94.2587 2.68135 0
94.2587 -2.68135 0
91.6875 -7.9709 0
86.6154 -13.043 0
79.1806 -17.7594 0
69.586 -21.9913 0
58.0933 -25.6234 0
45.0159 -28.5565 0
30.7106 -30.7106 0
15.5676 -32.0271 0
16.235 16.235 0
32.0271 15.5676 0
46.9456 14.4757 0
60.5836 12.9888 0
72.569 11.1477 0
82.5749 9.00247 0
90.3283 6.61169 0
95.6179 4.04056 0
98.2992 1.35921 0
98.2992 -1.35921 0
95.6179 -4.04056 0
90.3283 -6.61169 0
82.5749 -9.00247 0
72.569 -11.1477 0
60.5836 -12.9888 0
46.9456 -14.4757 0
32.0271 -15.5676 0
16.235 -16.235 0
-16.235 16.235 0
-32.0271 15.5676 0
-46.9456 14.4757 0
-60.5836 12.9888 0
-72.569 11.1477 0
-82.5749 9.00247 0
-90.3283 6.61169 0
-95.6179 4.04056 0
-98.2992 1.35921 0
-98.2992 -1.35921 0
-95.6179 -4.04056 0
-90.3283 -6.61169 0
-82.5749 -9.00247 0
-72.569 -11.1477 0
-60.5836 -12.9888 0
-46.9456 -14.4757 0
-32.0271 -15.5676 0
-16.235 -16.235 0
-15.5676 32.0271 0
-30.7106 30.7106 0
-45.0159 28.5565 0
-58.0933 25.6234 0
-69.586 21.9913 0
-79.1806 17.7594 0
-86.6154 13.043 0
-91.6875 7.9709 0
-94.2587 2.68135 0
-94.2587 -2.68135 0
-91.6875 -7.9709 0
-86.6154 -13.043 0
-79.1806 -17.7594 0
-69.586 -21.9913 0
-58.0933 -25.6234 0
-45.0159 -28.5565 0
-30.7106 -30.7106 0
-15.5676 -32.0271 0
-14.4757 46.9456 0
-28.5565 45.0159 0
-41.8583 41.8583 0
-54.0184 37.5589 0
-64.705 32.235 0
-73.6266 26.0319 0
-80.5399 19.1186 0
-85.2562 11.6838 0
-87.647 3.93034 0
-87.647 -3.93034 0
-85.2562 -11.6838 0
-80.5399 -19.1186 0
-73.6266 -26.0319 0
-64.705 -32.235 0
-54.0184 -37.5589 0
-41.8583 -41.8583 0
-28.5565 -45.0159 0
-14.4757 -46.9456 0
-12.9888 60.5836 0
-25.6234 58.0933 0
-37.5589 54.0184 0
-48.47 48.47 0
-58.059 41.5995 0
-66.0642 33.5943 0
-72.2674 24.6726 0
-76.4993 15.078 0
-78.6445 5.07213 0
-78.6445 -5.07213 0
-76.4993 -15.078 0
-72.2674 -24.6726 0
-66.0642 -33.5943 0
-58.059 -41.5995 0
-48.47 -48.47 0
-37.5589 -54.0184 0
-25.6234 -58.0933 0
-12.9888 -60.5836 0
-11.1477 72.569 0
-21.9913 69.586 0
-32.235 64.705 0
-41.5995 58.059 0
-49.8292 49.8292 0
-56.6997 40.2403 0
-62.0236 29.5537 0
-65.6557 18.061 0
-67.4968 6.07556 0
-67.4968 -6.07556 0
-65.6557 -18.061 0
-62.0236 -29.5537 0
-56.6997 -40.2403 0
-49.8292 -49.8292 0
-41.5995 -58.059 0
-32.235 -64.705 0
-21.9913 -69.586 0
-11.1477 -72.569 0
-9.00247 82.5749 0
-17.7594 79.1806 0
-26.0319 73.6266 0
-33.5943 66.0642 0
-40.2403 56.6997 0
-45.7887 45.7887 0
-50.0881 33.6286 0
-53.0212 20.5512 0
-54.508 6.91327 0
-54.508 -6.91327 0
-53.0212 -20.5512 0
-50.0881 -33.6286 0
-45.7887 -45.7887 0
-40.2403 -56.6997 0
-33.5943 -66.0642 0
-26.0319 -73.6266 0
-17.7594 -79.1806 0
-9.00247 -82.5749 0
-6.61169 90.3283 0
-13.043 86.6154 0
-19.1186 80.5399 0
-24.6726 72.2674 0
-29.5537 62.0236 0
-33.6286 50.0881 0
-36.7862 36.7862 0
-38.9404 22.4809 0
-40.0323 7.5624 0
-40.0323 -7.5624 0
-38.9404 -22.4809 0
-36.7862 -36.7862 0
-33.6286 -50.0881 0
-29.5537 -62.0236 0
-24.6726 -72.2674 0
-19.1186 -80.5399 0
-13.043 -86.6154 0
-6.61169 -90.3283 0
-4.04056 95.6179 0
-7.9709 91.6875 0
-11.6838 85.2562 0
-15.078 76.4993 0
-18.061 65.6557 0
-20.5512 53.0212 0
-22.4809 38.9404 0
-23.7974 23.7974 0
-24.4647 8.00524 0
-24.4647 -8.00524 0
-23.7974 -23.7974 0
-22.4809 -38.9404 0
-20.5512 -53.0212 0
-18.061 -65.6557 0
-15.078 -76.4993 0
-11.6838 -85.2562 0
-7.9709 -91.6875 0
-4.04056 -95.6179 0
-1.35921 98.2992 0
-2.68135 94.2587 0
-3.93034 87.647 0
-5.07213 78.6445 0
-6.07556 67.4968 0
-6.91327 54.508 0
-7.5624 40.0323 0
-8.00524 24.4647 0
-8.22973 8.22973 0
-8.22973 -8.22973 0
-8.00524 -24.4647 0
-7.5624 -40.0323 0
-6.91327 -54.508 0
-6.07556 -67.4968 0
-5.07213 -78.6445 0
-3.93034 -87.647 0
-2.68135 -94.2587 0
-1.35921 -98.2992 0
1.35921 98.2992 0
2.68135 94.2587 0
3.93034 87.647 0
5.07213 78.6445 0
6.07556 67.4968 0
6.91327 54.508 0
7.5624 40.0323 0
8.00524 24.4647 0
8.22973 8.22973 0
8.22973 -8.22973 0
8.00524 -24.4647 0
7.5624 -40.0323 0
6.91327 -54.508 0
6.07556 -67.4968 0
5.07213 -78.6445 0
3.93034 -87.647 0
2.68135 -94.2587 0
1.35921 -98.2992 0
4.04056 95.6179 0
7.9709 91.6875 0
11.6838 85.2562 0
15.078 76.4993 0
18.061 65.6557 0
20.5512 53.0212 0
22.4809 38.9404 0
23.7974 23.7974 0
24.4647 8.00524 0
24.4647 -8.00524 0
23.7974 -23.7974 0
22.4809 -38.9404 0
20.5512 -53.0212 0
18.061 -65.6557 0
15.078 -76.4993 0
11.6838 -85.2562 0
7.9709 -91.6875 0
4.04056 -95.6179 0
6.61169 90.3283 0
13.043 86.6154 0
19.1186 80.5399 0
24.6726 72.2674 0
29.5537 62.0236 0
33.6286 50.0881 0
36.7862 36.7862 0
38.9404 22.4809 0
40.0323 7.5624 0
40.0323 -7.5624 0
38.9404 -22.4809 0
36.7862 -36.7862 0
33.6286 -50.0881 0
29.5537 -62.0236 0
24.6726 -72.2674 0
19.1186 -80.5399 0
13.043 -86.6154 0
6.61169 -90.3283 0
9.00247 82.5749 0
17.7594 79.1806 0
26.0319 73.6266 0
33.5943 66.0642 0
40.2403 56.6997 0
45.7887 45.7887 0
50.0881 33.6286 0
53.0212 20.5512 0
54.508 6.91327 0
54.508 -6.91327 0
53.0212 -20.5512 0
50.0881 -33.6286 0
45.7887 -45.7887 0
40.2403 -56.6997 0
33.5943 -66.0642 0
26.0319 -73.6266 0
17.7594 -79.1806 0
9.00247 -82.5749 0
11.1477 72.569 0
21.9913 69.586 0
32.235 64.705 0
41.5995 58.059 0
49.8292 49.8292 0
56.6997 40.2403 0
62.0236 29.5537 0
65.6557 18.061 0
67.4968 6.07556 0
67.4968 -6.07556 0
65.6557 -18.061 0
62.0236 -29.5537 0
56.6997 -40.2403 0
49.8292 -49.8292 0
41.5995 -58.059 0
32.235 -64.705 0
21.9913 -69.586 0
11.1477 -72.569 0
12.9888 60.5836 0
25.6234 58.0933 0
37.5589 54.0184 0
48.47 48.47 0
58.059 41.5995 0
66.0642 33.5943 0
72.2674 24.6726 0
76.4993 15.078 0
78.6445 5.07213 0
78.6445 -5.07213 0
76.4993 -15.078 0
72.2674 -24.6726 0
66.0642 -33.5943 0
58.059 -41.5995 0
48.47 -48.47 0
37.5589 -54.0184 0
25.6234 -58.0933 0
12.9888 -60.5836 0
14.4757 46.9456 0
28.5565 45.0159 0
41.8583 41.8583 0
54.0184 37.5589 0
64.705 32.235 0
73.6266 26.0319 0
80.5399 19.1186 0
85.2562 11.6838 0
87.647 3.93034 0
87.647 -3.93034 0
85.2562 -11.6838 0
80.5399 -19.1186 0
73.6266 -26.0319 0
64.705 -32.235 0
54.0184 -37.5589 0
41.8583 -41.8583 0
28.5565 -45.0159 0
14.4757 -46.9456 0
15.5676 32.0271 0
30.7106 30.7106 0
45.0159 28.5565 0
58.0933 25.6234 0
69.586 21.9913 0
79.1806 17.7594 0
86.6154 13.043 0
91.6875 7.9709 0
94.2587 2.68135 0
94.2587 -2.68135 0
91.6875 -7.9709 0
86.6154 -13.043 0
79.1806 -17.7594 0
69.586 -21.9913 0
58.0933 -25.6234 0
45.0159 -28.5565 0
30.7106 -30.7106 0
15.5676 -32.0271 0
16.235 16.235 0
32.0271 15.5676 0
46.9456 14.4757 0
60.5836 12.9888 0
72.569 11.1477 0
82.5749 9.00247 0
90.3283 6.61169 0
95.6179 4.04056 0
98.2992 1.35921 0
98.2992 -1.35921 0
95.6179 -4.04056 0
90.3283 -6.61169 0
82.5749 -9.00247 0
72.569 -11.1477 0
60.5836 -12.9888 0
46.9456 -14.4757 0
32.0271 -15.5676 0
16.235 -16.235 0
-16.235 16.235 0
-32.0271 15.5676 0
-46.9456 14.4757 0
-60.5836 12.9888 0
-72.569 11.1477 0
-82.5749 9.00247 0
-90.3283 6.61169 0
-95.6179 4.04056 0
-98.2992 1.35921 0
-98.2992 -1.35921 0
-95.6179 -4.04056 0
-90.3283 -6.61169 0
-82.5749 -9.00247 0
-72.569 -11.1477 0
-60.5836 -12.9888 0
-46.9456 -14.4757 0
-32.0271 -15.5676 0
-16.235 -16.235 0
-15.5676 32.0271 0
-30.7106 30.7106 0
-45.0159 28.5565 0
-58.0933 25.6234 0
-69.586 21.9913 0
-79.1806 17.7594 0
-86.6154 13.043 0
-91.6875 7.9709 0
-94.2587 2.68135 0
-94.2587 -2.68135 0
-91.6875 -7.9709 0
-86.6154 -13.043 0
-79.1806 -17.7594 0
-69.586 -21.9913 0
-58.0933 -25.6234 0
-45.0159 -28.5565 0
-30.7106 -30.7106 0
-15.5676 -32.0271 0
-14.4757 46.9456 0
-28.5565 45.0159 0
-41.8583 41.8583 0
-54.0184 37.5589 0
-64.705 32.235 0
-73.6266 26.0319 0
-80.5399 19.1186 0
-85.2562 11.6838 0
-87.647 3.93034 0
-87.647 -3.93034 0
-85.2562 -11.6838 0
-80.5399 -19.1186 0
-73.6266 -26.0319 0
-64.705 -32.235 0
-54.0184 -37.5589 0
-41.8583 -41.8583 0
-28.5565 -45.0159 0
-14.4757 -46.9456 0
-12.9888 60.5836 0
-25.6234 58.0933 0
-37.5589 54.0184 0
-48.47 48.47 0
-58.059 41.5995 0
-66.0642 33.5943 0
-72.2674 24.6726 0
-76.4993 15.078 0
-78.6445 5.07213 0
-78.6445 -5.07213 0
-76.4993 -15.078 0
-72.2674 -24.6726 0
-66.0642 -33.5943 0
-58.059 -41.5995 0
-48.47 -48.47 0
-37.5589 -54.0184 0
-25.6234 -58.0933 0
-12.9888 -60.5836 0
-11.1477 72.569 0
-21.9913 69.586 0
-32.235 64.705 0
-41.5995 58.059 0
-49.8292 49.8292 0
-56.6997 40.2403 0
-62.0236 29.5537 0
-65.6557 18.061 0
-67.4968 6.07556 0
-67.4968 -6.07556 0
-65.6557 -18.061 0
-62.0236 -29.5537 0
-56.6997 -40.2403 0
-49.8292 -49.8292 0
-41.5995 -58.059 0
-32.235 -64.705 0
-21.9913 -69.586 0
-11.1477 -72.569 0
-9.00247 82.5749 0
-17.7594 79.1806 0
-26.0319 73.6266 0
-33.5943 66.0642 0
-40.2403 56.6997 0
-45.7887 45.7887 0
-50.0881 33.6286 0
-53.0212 20.5512 0
-54.508 6.91327 0
-54.508 -6.91327 0
-53.0212 -20.5512 0
-50.0881 -33.6286 0
-45.7887 -45.7887 0
-40.2403 -56.6997 0
-33.5943 -66.0642 0
-26.0319 -73.6266 0
-17.7594 -79.1806 0
-9.00247 -82.5749 0
-6.61169 90.3283 0
-13.043 86.6154 0
-19.1186 80.5399 0
-24.6726 72.2674 0
-29.5537 62.0236 0
-33.6286 50.0881 0
-36.7862 36.7862 0
-38.9404 22.4809 0
-40.0323 7.5624 0
-40.0323 -7.5624 0
-38.9404 -22.4809 0
-36.7862 -36.7862 0
-33.6286 -50.0881 0
-29.5537 -62.0236 0
-24.6726 -72.2674 0
-19.1186 -80.5399 0
-13.043 -86.6154 0
-6.61169 -90.3283 0
-4.04056 95.6179 0
-7.9709 91.6875 0
-11.6838 85.2562 0
-15.078 76.4993 0
-18.061 65.6557 0
-20.5512 53.0212 0
-22.4809 38.9404 0
-23.7974 23.7974 0
-24.4647 8.00524 0
-24.4647 -8.00524 0
-23.7974 -23.7974 0
-22.4809 -38.9404 0
-20.5512 -53.0212 0
-18.061 -65.6557 0
-15.078 -76.4993 0
-11.6838 -85.2562 0
-7.9709 -91.6875 0
-4.04056 -95.6179 0
-1.35921 98.2992 0
-2.68135 94.2587 0
-3.93034 87.647 0
-5.07213 78.6445 0
-6.07556 67.4968 0
-6.91327 54.508 0
-7.5624 40.0323 0
-8.00524 24.4647 0
-8.22973 8.22973 0
-8.22973 -8.22973 0
-8.00524 -24.4647 0
-7.5624 -40.0323 0
-6.91327 -54.508 0
-6.07556 -67.4968 0
-5.07213 -78.6445 0
-3.93034 -87.647 0
-2.68135 -94.2587 0
-1.35921 -98.2992 0
1.35921 98.2992 0
2.68135 94.2587 0
3.93034 87.647 0
5.07213 78.6445 0
6.07556 67.4968 0
6.91327 54.508 0
7.5624 40.0323 0
8.00524 24.4647 0
8.22973 8.22973 0
8.22973 -8.22973 0
8.00524 -24.4647 0
7.5624 -40.0323 0
6.91327 -54.508 0
6.07556 -67.4968 0
5.07213 -78.6445 0
3.93034 -87.647 0
2.68135 -94.2587 0
1.35921 -98.2992 0
4.04056 95.6179 0
7.9709 91.6875 0
11.6838 85.2562 0
15.078 76.4993 0
18.061 65.6557 0
20.5512 53.0212 0
22.4809 38.9404 0
23.7974 23.7974 0
24.4647 8.00524 0
24.4647 -8.00524 0
23.7974 -23.7974 0
22.4809 -38.9404 0
20.5512 -53.0212 0
18.061 -65.6557 0
15.078 -76.4993 0
11.6838 -85.2562 0
7.9709 -91.6875 0
4.04056 -95.6179 0
6.61169 90.3283 0
13.043 86.6154 0
19.1186 80.5399 0
24.6726 72.2674 0
29.5537 62.0236 0
33.6286 50.0881 0
36.7862 36.7862 0
38.9404 22.4809 0
40.0323 7.5624 0
40.0323 -7.5624 0
38.9404 -22.4809 0
36.7862 -36.7862 0
33.6286 -50.0881 0
29.5537 -62.0236 0
24.6726 -72.2674 0
19.1186 -80.5399 0
13.043 -86.6154 0
6.61169 -90.3283 0
9.00247 82.5749 0
17.7594 79.1806 0
26.0319 73.6266 0
33.5943 66.0642 0
40.2403 56.6997 0
45.7887 45.7887 0
50.0881 33.6286 0
53.0212 20.5512 0
54.508 6.91327 0
54.508 -6.91327 0
53.0212 -20.5512 0
50.0881 -33.6286 0
45.7887 -45.7887 0
40.2403 -56.6997 0
33.5943 -66.0642 0
26.0319 -73.6266 0
17.7594 -79.1806 0
9.00247 -82.5749 0
11.1477 72.569 0
21.9913 69.586 0
32.235 64.705 0
41.5995 58.059 0
49.8292 49.8292 0
56.6997 40.2403 0
62.0236 29.5537 0
65.6557 18.061 0
67.4968 6.07556 0
67.4968 -6.07556 0
65.6557 -18.061 0
62.0236 -29.5537 0
56.6997 -40.2403 0
49.8292 -49.8292 0
41.5995 -58.059 0
32.235 -64.705 0
21.9913 -69.586 0
11.1477 -72.569 0
12.9888 60.5836 0
25.6234 58.0933 0
37.5589 54.0184 0
48.47 48.47 0
58.059 41.5995 0
66.0642 33.5943 0
72.2674 24.6726 0
76.4993 15.078 0
78.6445 5.07213 0
78.6445 -5.07213 0
76.4993 -15.078 0
72.2674 -24.6726 0
66.0642 -33.5943 0
58.059 -41.5995 0
48.47 -48.47 0
37.5589 -54.0184 0
25.6234 -58.0933 0
12.9888 -60.5836 0
14.4757 46.9456 0
28.5565 45.0159 0
41.8583 41.8583 0
54.0184 37.5589 0
64.705 32.235 0
73.6266 26.0319 0
80.5399 19.1186 0
85.2562 11.6838 0
87.647 3.93034 0
87.647 -3.93034 0
85.2562 -11.6838 0
80.5399 -19.1186 0
73.6266 -26.0319 0
64.705 -32.235 0
54.0184 -37.5589 0
41.8583 -41.8583 0
28.5565 -45.0159 0
14.4757 -46.9456 0
15.5676 32.0271 0
30.7106 30.7106 0
45.0159 28.5565 0
58.0933 25.6234 0
69.586 21.9913 0
79.1806 17.7594 0
86.6154 13.043 0
91.6875 7.9709 0
94.2587 2.68135 0
94.2587 -2.68135 0
91.6875 -7.9709 0
86.6154 -13.043 0
79.1806 -17.7594 0
69.586 -21.9913 0
58.0933 -25.6234 0
45.0159 -28.5565 0
30.7106 -30.7106 0
15.5676 -32.0271 0
16.235 16.235 0
32.0271 15.5676 0
46.9456 14.4757 0
60.5836 12.9888 0
72.569 11.1477 0
82.5749 9.00247 0
90.3283 6.61169 0
95.6179 4.04056 0
98.2992 1.35921 0
98.2992 -1.35921 0
95.6179 -4.04056 0
90.3283 -6.61169 0
82.5749 -9.00247 0
72.569 -11.1477 0
60.5836 -12.9888 0
46.9456 -14.4757 0
32.0271 -15.5676 0
16.235 -16.235 0
-16.235 16.235 0
-32.0271 15.5676 0
-46.9456 14.4757 0
-60.5836 12.9888 0
-72.569 11.1477 0
-82.5749 9.00247 0
-90.3283 6.61169 0
-95.6179 4.04056 0
-98.2992 1.35921 0
-98.2992 -1.35921 0
-95.6179 -4.04056 0
-90.3283 -6.61169 0
-82.5749 -9.00247 0
-72.569 -11.1477 0
-60.5836 -12.9888 0
-46.9456 -14.4757 0
-32.0271 -15.5676 0
-16.235 -16.235 0
-15.5676 32.0271 0
-30.7106 30.7106 0
-45.0159 28.5565 0
-58.0933 25.6234 0
-69.586 21.9913 0
-79.1806 17.7594 0
-86.6154 13.043 0
-91.6875 7.9709 0
-94.2587 2.68135 0
-94.2587 -2.68135 0
-91.6875 -7.9709 0
-86.6154 -13.043 0
-79.1806 -17.7594 0
-69.586 -21.9913 0
-58.0933 -25.6234 0
-45.0159 -28.5565 0
-30.7106 -30.7106 0
-15.5676 -32.0271 0
-14.4757 46.9456 0
-28.5565 45.0159 0
-41.8583 41.8583 0
-54.0184 37.5589 0
-64.705 32.235 0
-73.6266 26.0319 0
-80.5399 19.1186 0
-85.2562 11.6838 0
-87.647 3.93034 0
-87.647 -3.93034 0
-85.2562 -11.6838 0
-80.5399 -19.1186 0
-73.6266 -26.0319 0
-64.705 -32.235 0
-54.0184 -37.5589 0
-41.8583 -41.8583 0
-28.5565 -45.0159 0
-14.4757 -46.9456 0
-12.9888 60.5836 0
-25.6234 58.0933 0
-37.5589 54.0184 0
-48.47 48.47 0
-58.059 41.5995 0
-66.0642 33.5943 0
-72.2674 24.6726 0
-76.4993 15.078 0
-78.6445 5.07213 0
-78.6445 -5.07213 0
-76.4993 -15.078 0
-72.2674 -24.6726 0
-66.0642 -33.5943 0
-58.059 -41.5995 0
-48.47 -48.47 0
-37.5589 -54.0184 0
-25.6234 -58.0933 0
-12.9888 -60.5836 0
-11.1477 72.569 0
-21.9913 69.586 0
-32.235 64.705 0
-41.5995 58.059 0
-49.8292 49.8292 0
-56.6997 40.2403 0
-62.0236 29.5537 0
-65.6557 18.061 0
-67.4968 6.07556 0
-67.4968 -6.07556 0
-65.6557 -18.061 0
-62.0236 -29.5537 0
-56.6997 -40.2403 0
-49.8292 -49.8292 0
-41.5995 -58.059 0
-32.235 -64.705 0
-21.9913 -69.586 0
-11.1477 -72.569 0
-9.00247 82.5749 0
-17.7594 79.1806 0
-26.0319 73.6266 0
-33.5943 66.0642 0
-40.2403 56.6997 0
-45.7887 45.7887 0
-50.0881 33.6286 0
-53.0212 20.5512 0
-54.508 6.91327 0
-54.508 -6.91327 0
-53.0212 -20.5512 0
-50.0881 -33.6286 0
-45.7887 -45.7887 0
-40.2403 -56.6997 0
-33.5943 -66.0642 0
-26.0319 -73.6266 0
-17.7594 -79.1806 0
-9.00247 -82.5749 0
-6.61169 90.3283 0
-13.043 86.6154 0
-19.1186 80.5399 0
-24.6726 72.2674 0
-29.5537 62.0236 0
-33.6286 50.0881 0
-36.7862 36.7862 0
-38.9404 22.4809 0
-40.0323 7.5624 0
-40.0323 -7.5624 0
-38.9404 -22.4809 0
-36.7862 -36.7862 0
-33.6286 -50.0881 0
-29.5537 -62.0236 0
-24.6726 -72.2674 0
-19.1186 -80.5399 0
-13.043 -86.6154 0
-6.61169 -90.3283 0
-4.04056 95.6179 0
-7.9709 91.6875 0
-11.6838 85.2562 0
-15.078 76.4993 0
-18.061 65.6557 0
-20.5512 53.0212 0
-22.4809 38.9404 0
-23.7974 23.7974 0
-24.4647 8.00524 0
-24.4647 -8.00524 0
-23.7974 -23.7974 0
-22.4809 -38.9404 0
-20.5512 -53.0212 0
-18.061 -65.6557 0
-15.078 -76.4993 0
-11.6838 -85.2562 0
-7.9709 -91.6875 0
-4.04056 -95.6179 0
-1.35921 98.2992 0
-2.68135 94.2587 0
-3.93034 87.647 0
-5.07213 78.6445 0
-6.07556 67.4968 0
-6.91327 54.508 0
-7.5624 40.0323 0
-8.00524 24.4647 0
-8.22973 8.22973 0
-8.22973 -8.22973 0
-8.00524 -24.4647 0
-7.5624 -40.0323 0
-6.91327 -54.508 0
-6.07556 -67.4968 0
-5.07213 -78.6445 0
-3.93034 -87.647 0
-2.68135 -94.2587 0
-1.35921 -98.2992 0
1.35921 98.2992 0
2.68135 94.2587 0
3.93034 87.647 0
5.07213 78.6445 0
6.07556 67.4968 0
6.91327 54.508 0
7.5624 40.0323 0
8.00524 24.4647 0
8.22973 8.22973 0
8.22973 -8.22973 0
8.00524 -24.4647 0
7.5624 -40.0323 0
6.91327 -54.508 0
6.07556 -67.4968 0
5.07213 -78.6445 0
3.93034 -87.647 0
2.68135 -94.2587 0
1.35921 -98.2992 0
4.04056 95.6179 0
7.9709 91.6875 0
11.6838 85.2562 0
15.078 76.4993 0
18.061 65.6557 0
20.5512 53.0212 0
22.4809 38.9404 0
23.7974 23.7974 0
24.4647 8.00524 0
24.4647 -8.00524 0
23.7974 -23.7974 0
22.4809 -38.9404 0
20.5512 -53.0212 0
18.061 -65.6557 0
15.078 -76.4993 0
11.6838 -85.2562 0
7.9709 -91.6875 0
4.04056 -95.6179 0
6.61169 90.3283 0
13.043 86.6154 0
19.1186 80.5399 0
24.6726 72.2674 0
29.5537 62.0236 0
33.6286 50.0881 0
36.7862 36.7862 0
38.9404 22.4809 0
40.0323 7.5624 0
40.0323 -7.5624 0
38.9404 -22.4809 0
36.7862 -36.7862 0
33.6286 -50.0881 0
29.5537 -62.0236 0
24.6726 -72.2674 0
19.1186 -80.5399 0
13.043 -86.6154 0
6.61169 -90.3283 0
9.00247 82.5749 0
17.7594 79.1806 0
26.0319 73.6266 0
33.5943 66.0642 0
40.2403 56.6997 0
45.7887 45.7887 0
50.0881 33.6286 0
53.0212 20.5512 0
54.508 6.91327 0
54.508 -6.91327 0
53.0212 -20.5512 0
50.0881 -33.6286 0
45.7887 -45.7887 0
40.2403 -56.6997 0
33.5943 -66.0642 0
26.0319 -73.6266 0
17.7594 -79.1806 0
9.00247 -82.5749 0
11.1477 72.569 0
21.9913 69.586 0
32.235 64.705 0
41.5995 58.059 0
49.8292 49.8292 0
56.6997 40.2403 0
62.0236 29.5537 0
65.6557 18.061 0
67.4968 6.07556 0
67.4968 -6.07556 0
65.6557 -18.061 0
62.0236 -29.5537 0
56.6997 -40.2403 0
49.8292 -49.8292 0
41.5995 -58.059 0
32.235 -64.705 0
21.9913 -69.586 0
11.1477 -72.569 0
12.9888 60.5836 0
25.6234 58.0933 0
37.5589 54.0184 0
48.47 48.47 0
58.059 41.5995 0
66.0642 33.5943 0
72.2674 24.6726 0
76.4993 15.078 0
78.6445 5.07213 0
78.6445 -5.07213 0
76.4993 -15.078 0
72.2674 -24.6726 0
66.0642 -33.5943 0
58.059 -41.5995 0
48.47 -48.47 0
37.5589 -54.0184 0
25.6234 -58.0933 0
12.9888 -60.5836 0
14.4757 46.9456 0
28.5565 45.0159 0
41.8583 41.8583 0
54.0184 37.5589 0